# vtk DataFile Version 3.0
PINN prediction t=0.0
ASCII
DATASET UNSTRUCTURED_GRID
POINTS 1000 float
0.000000 0.000000 0.000000
0.000000 0.000000 0.044444
0.000000 0.000000 0.088889
0.000000 0.000000 0.133333
0.000000 0.000000 0.177778
0.000000 0.000000 0.222222
0.000000 0.000000 0.266667
0.000000 0.000000 0.311111
0.000000 0.000000 0.355556
0.000000 0.000000 0.400000
0.000000 0.088889 0.000000
0.000000 0.088889 0.044444
0.000000 0.088889 0.088889
0.000000 0.088889 0.133333
0.000000 0.088889 0.177778
0.000000 0.088889 0.222222
0.000000 0.088889 0.266667
0.000000 0.088889 0.311111
0.000000 0.088889 0.355556
0.000000 0.088889 0.400000
0.000000 0.177778 0.000000
0.000000 0.177778 0.044444
0.000000 0.177778 0.088889
0.000000 0.177778 0.133333
0.000000 0.177778 0.177778
0.000000 0.177778 0.222222
0.000000 0.177778 0.266667
0.000000 0.177778 0.311111
0.000000 0.177778 0.355556
0.000000 0.177778 0.400000
0.000000 0.266667 0.000000
0.000000 0.266667 0.044444
0.000000 0.266667 0.088889
0.000000 0.266667 0.133333
0.000000 0.266667 0.177778
0.000000 0.266667 0.222222
0.000000 0.266667 0.266667
0.000000 0.266667 0.311111
0.000000 0.266667 0.355556
0.000000 0.266667 0.400000
0.000000 0.355556 0.000000
0.000000 0.355556 0.044444
0.000000 0.355556 0.088889
0.000000 0.355556 0.133333
0.000000 0.355556 0.177778
0.000000 0.355556 0.222222
0.000000 0.355556 0.266667
0.000000 0.355556 0.311111
0.000000 0.355556 0.355556
0.000000 0.355556 0.400000
0.000000 0.444444 0.000000
0.000000 0.444444 0.044444
0.000000 0.444444 0.088889
0.000000 0.444444 0.133333
0.000000 0.444444 0.177778
0.000000 0.444444 0.222222
0.000000 0.444444 0.266667
0.000000 0.444444 0.311111
0.000000 0.444444 0.355556
0.000000 0.444444 0.400000
0.000000 0.533333 0.000000
0.000000 0.533333 0.044444
0.000000 0.533333 0.088889
0.000000 0.533333 0.133333
0.000000 0.533333 0.177778
0.000000 0.533333 0.222222
0.000000 0.533333 0.266667
0.000000 0.533333 0.311111
0.000000 0.533333 0.355556
0.000000 0.533333 0.400000
0.000000 0.622222 0.000000
0.000000 0.622222 0.044444
0.000000 0.622222 0.088889
0.000000 0.622222 0.133333
0.000000 0.622222 0.177778
0.000000 0.622222 0.222222
0.000000 0.622222 0.266667
0.000000 0.622222 0.311111
0.000000 0.622222 0.355556
0.000000 0.622222 0.400000
0.000000 0.711111 0.000000
0.000000 0.711111 0.044444
0.000000 0.711111 0.088889
0.000000 0.711111 0.133333
0.000000 0.711111 0.177778
0.000000 0.711111 0.222222
0.000000 0.711111 0.266667
0.000000 0.711111 0.311111
0.000000 0.711111 0.355556
0.000000 0.711111 0.400000
0.000000 0.800000 0.000000
0.000000 0.800000 0.044444
0.000000 0.800000 0.088889
0.000000 0.800000 0.133333
0.000000 0.800000 0.177778
0.000000 0.800000 0.222222
0.000000 0.800000 0.266667
0.000000 0.800000 0.311111
0.000000 0.800000 0.355556
0.000000 0.800000 0.400000
0.044444 0.000000 0.000000
0.044444 0.000000 0.044444
0.044444 0.000000 0.088889
0.044444 0.000000 0.133333
0.044444 0.000000 0.177778
0.044444 0.000000 0.222222
0.044444 0.000000 0.266667
0.044444 0.000000 0.311111
0.044444 0.000000 0.355556
0.044444 0.000000 0.400000
0.044444 0.088889 0.000000
0.044444 0.088889 0.044444
0.044444 0.088889 0.088889
0.044444 0.088889 0.133333
0.044444 0.088889 0.177778
0.044444 0.088889 0.222222
0.044444 0.088889 0.266667
0.044444 0.088889 0.311111
0.044444 0.088889 0.355556
0.044444 0.088889 0.400000
0.044444 0.177778 0.000000
0.044444 0.177778 0.044444
0.044444 0.177778 0.088889
0.044444 0.177778 0.133333
0.044444 0.177778 0.177778
0.044444 0.177778 0.222222
0.044444 0.177778 0.266667
0.044444 0.177778 0.311111
0.044444 0.177778 0.355556
0.044444 0.177778 0.400000
0.044444 0.266667 0.000000
0.044444 0.266667 0.044444
0.044444 0.266667 0.088889
0.044444 0.266667 0.133333
0.044444 0.266667 0.177778
0.044444 0.266667 0.222222
0.044444 0.266667 0.266667
0.044444 0.266667 0.311111
0.044444 0.266667 0.355556
0.044444 0.266667 0.400000
0.044444 0.355556 0.000000
0.044444 0.355556 0.044444
0.044444 0.355556 0.088889
0.044444 0.355556 0.133333
0.044444 0.355556 0.177778
0.044444 0.355556 0.222222
0.044444 0.355556 0.266667
0.044444 0.355556 0.311111
0.044444 0.355556 0.355556
0.044444 0.355556 0.400000
0.044444 0.444444 0.000000
0.044444 0.444444 0.044444
0.044444 0.444444 0.088889
0.044444 0.444444 0.133333
0.044444 0.444444 0.177778
0.044444 0.444444 0.222222
0.044444 0.444444 0.266667
0.044444 0.444444 0.311111
0.044444 0.444444 0.355556
0.044444 0.444444 0.400000
0.044444 0.533333 0.000000
0.044444 0.533333 0.044444
0.044444 0.533333 0.088889
0.044444 0.533333 0.133333
0.044444 0.533333 0.177778
0.044444 0.533333 0.222222
0.044444 0.533333 0.266667
0.044444 0.533333 0.311111
0.044444 0.533333 0.355556
0.044444 0.533333 0.400000
0.044444 0.622222 0.000000
0.044444 0.622222 0.044444
0.044444 0.622222 0.088889
0.044444 0.622222 0.133333
0.044444 0.622222 0.177778
0.044444 0.622222 0.222222
0.044444 0.622222 0.266667
0.044444 0.622222 0.311111
0.044444 0.622222 0.355556
0.044444 0.622222 0.400000
0.044444 0.711111 0.000000
0.044444 0.711111 0.044444
0.044444 0.711111 0.088889
0.044444 0.711111 0.133333
0.044444 0.711111 0.177778
0.044444 0.711111 0.222222
0.044444 0.711111 0.266667
0.044444 0.711111 0.311111
0.044444 0.711111 0.355556
0.044444 0.711111 0.400000
0.044444 0.800000 0.000000
0.044444 0.800000 0.044444
0.044444 0.800000 0.088889
0.044444 0.800000 0.133333
0.044444 0.800000 0.177778
0.044444 0.800000 0.222222
0.044444 0.800000 0.266667
0.044444 0.800000 0.311111
0.044444 0.800000 0.355556
0.044444 0.800000 0.400000
0.088889 0.000000 0.000000
0.088889 0.000000 0.044444
0.088889 0.000000 0.088889
0.088889 0.000000 0.133333
0.088889 0.000000 0.177778
0.088889 0.000000 0.222222
0.088889 0.000000 0.266667
0.088889 0.000000 0.311111
0.088889 0.000000 0.355556
0.088889 0.000000 0.400000
0.088889 0.088889 0.000000
0.088889 0.088889 0.044444
0.088889 0.088889 0.088889
0.088889 0.088889 0.133333
0.088889 0.088889 0.177778
0.088889 0.088889 0.222222
0.088889 0.088889 0.266667
0.088889 0.088889 0.311111
0.088889 0.088889 0.355556
0.088889 0.088889 0.400000
0.088889 0.177778 0.000000
0.088889 0.177778 0.044444
0.088889 0.177778 0.088889
0.088889 0.177778 0.133333
0.088889 0.177778 0.177778
0.088889 0.177778 0.222222
0.088889 0.177778 0.266667
0.088889 0.177778 0.311111
0.088889 0.177778 0.355556
0.088889 0.177778 0.400000
0.088889 0.266667 0.000000
0.088889 0.266667 0.044444
0.088889 0.266667 0.088889
0.088889 0.266667 0.133333
0.088889 0.266667 0.177778
0.088889 0.266667 0.222222
0.088889 0.266667 0.266667
0.088889 0.266667 0.311111
0.088889 0.266667 0.355556
0.088889 0.266667 0.400000
0.088889 0.355556 0.000000
0.088889 0.355556 0.044444
0.088889 0.355556 0.088889
0.088889 0.355556 0.133333
0.088889 0.355556 0.177778
0.088889 0.355556 0.222222
0.088889 0.355556 0.266667
0.088889 0.355556 0.311111
0.088889 0.355556 0.355556
0.088889 0.355556 0.400000
0.088889 0.444444 0.000000
0.088889 0.444444 0.044444
0.088889 0.444444 0.088889
0.088889 0.444444 0.133333
0.088889 0.444444 0.177778
0.088889 0.444444 0.222222
0.088889 0.444444 0.266667
0.088889 0.444444 0.311111
0.088889 0.444444 0.355556
0.088889 0.444444 0.400000
0.088889 0.533333 0.000000
0.088889 0.533333 0.044444
0.088889 0.533333 0.088889
0.088889 0.533333 0.133333
0.088889 0.533333 0.177778
0.088889 0.533333 0.222222
0.088889 0.533333 0.266667
0.088889 0.533333 0.311111
0.088889 0.533333 0.355556
0.088889 0.533333 0.400000
0.088889 0.622222 0.000000
0.088889 0.622222 0.044444
0.088889 0.622222 0.088889
0.088889 0.622222 0.133333
0.088889 0.622222 0.177778
0.088889 0.622222 0.222222
0.088889 0.622222 0.266667
0.088889 0.622222 0.311111
0.088889 0.622222 0.355556
0.088889 0.622222 0.400000
0.088889 0.711111 0.000000
0.088889 0.711111 0.044444
0.088889 0.711111 0.088889
0.088889 0.711111 0.133333
0.088889 0.711111 0.177778
0.088889 0.711111 0.222222
0.088889 0.711111 0.266667
0.088889 0.711111 0.311111
0.088889 0.711111 0.355556
0.088889 0.711111 0.400000
0.088889 0.800000 0.000000
0.088889 0.800000 0.044444
0.088889 0.800000 0.088889
0.088889 0.800000 0.133333
0.088889 0.800000 0.177778
0.088889 0.800000 0.222222
0.088889 0.800000 0.266667
0.088889 0.800000 0.311111
0.088889 0.800000 0.355556
0.088889 0.800000 0.400000
0.133333 0.000000 0.000000
0.133333 0.000000 0.044444
0.133333 0.000000 0.088889
0.133333 0.000000 0.133333
0.133333 0.000000 0.177778
0.133333 0.000000 0.222222
0.133333 0.000000 0.266667
0.133333 0.000000 0.311111
0.133333 0.000000 0.355556
0.133333 0.000000 0.400000
0.133333 0.088889 0.000000
0.133333 0.088889 0.044444
0.133333 0.088889 0.088889
0.133333 0.088889 0.133333
0.133333 0.088889 0.177778
0.133333 0.088889 0.222222
0.133333 0.088889 0.266667
0.133333 0.088889 0.311111
0.133333 0.088889 0.355556
0.133333 0.088889 0.400000
0.133333 0.177778 0.000000
0.133333 0.177778 0.044444
0.133333 0.177778 0.088889
0.133333 0.177778 0.133333
0.133333 0.177778 0.177778
0.133333 0.177778 0.222222
0.133333 0.177778 0.266667
0.133333 0.177778 0.311111
0.133333 0.177778 0.355556
0.133333 0.177778 0.400000
0.133333 0.266667 0.000000
0.133333 0.266667 0.044444
0.133333 0.266667 0.088889
0.133333 0.266667 0.133333
0.133333 0.266667 0.177778
0.133333 0.266667 0.222222
0.133333 0.266667 0.266667
0.133333 0.266667 0.311111
0.133333 0.266667 0.355556
0.133333 0.266667 0.400000
0.133333 0.355556 0.000000
0.133333 0.355556 0.044444
0.133333 0.355556 0.088889
0.133333 0.355556 0.133333
0.133333 0.355556 0.177778
0.133333 0.355556 0.222222
0.133333 0.355556 0.266667
0.133333 0.355556 0.311111
0.133333 0.355556 0.355556
0.133333 0.355556 0.400000
0.133333 0.444444 0.000000
0.133333 0.444444 0.044444
0.133333 0.444444 0.088889
0.133333 0.444444 0.133333
0.133333 0.444444 0.177778
0.133333 0.444444 0.222222
0.133333 0.444444 0.266667
0.133333 0.444444 0.311111
0.133333 0.444444 0.355556
0.133333 0.444444 0.400000
0.133333 0.533333 0.000000
0.133333 0.533333 0.044444
0.133333 0.533333 0.088889
0.133333 0.533333 0.133333
0.133333 0.533333 0.177778
0.133333 0.533333 0.222222
[...]
POINT_DATA 1000
SCALARS Temperature float 1
LOOKUP_TABLE default
23.802765
22.218353
20.634491
19.051849
17.471039
15.892670
14.317413
12.745850
11.178619
9.616333
23.890900
22.307098
20.723969
19.142120
17.562225
15.984924
14.410797
12.840454
11.274567
9.713715
23.978058
22.395752
20.814209
19.234070
17.655975
16.080536
14.508392
12.940155
11.376434
9.817841
24.063416
22.483459
20.904388
19.326782
17.751343
16.178650
14.609344
13.044037
11.483337
9.927856
24.146088
22.569336
20.993561
19.419403
17.847443
16.278351
14.712738
13.151215
11.594360
10.042816
24.225250
22.652557
21.080933
19.511017
17.943420
16.378754
14.817657
13.260742
11.708588
10.161804
24.300049
22.732208
21.165588
19.600739
18.038330
16.478943
14.923187
13.371704
11.825043
10.283844
24.369629
22.807526
21.246704
19.687775
18.131317
16.578033
15.028412
13.483185
11.942841
10.407990
24.433258
22.877686
21.323456
19.771210
18.221558
16.675140
15.132507
13.594269
12.061005
10.533295
24.490204
22.941895
21.395050
19.850311
18.308228
16.769440
15.234528
13.704071
12.178680
10.658905
22.987823
21.403595
19.820038
18.237823
16.657532
15.079803
13.505280
11.934570
10.368286
8.807037
23.075928
21.492493
19.909851
18.328613
16.749420
15.172882
13.599640
12.030365
10.465576
8.905914
23.163422
21.581665
20.000763
18.421387
16.844147
15.269684
13.698608
12.131531
10.569092
9.011871
23.249451
21.670197
20.091919
18.515259
16.940826
15.369293
13.801208
12.237244
10.677979
9.124023
23.333099
21.757233
20.182434
18.609344
17.038605
15.470795
13.906586
12.346527
10.791290
9.241425
23.413605
21.841949
20.271484
18.702789
17.136536
15.573334
14.013794
12.458527
10.908112
9.363159
23.490082
21.923492
20.358154
18.794708
17.233826
15.676025
14.121979
12.572296
11.027527
9.488281
23.561798
22.001068
20.441681
18.884308
17.329529
15.777985
14.230255
12.686920
11.148621
9.615906
23.627930
22.073853
20.521240
18.970734
17.422913
15.878387
14.337738
12.801575
11.270508
9.745056
23.687775
22.141144
20.596069
19.053192
17.513062
15.976349
14.443573
12.915344
11.392273
9.874878
22.173004
20.589294
19.006409
17.424896
15.845459
14.268677
12.695221
11.125671
9.560638
8.000732
22.260925
20.678223
19.096375
17.516022
15.937866
14.362457
12.790436
11.222443
9.659088
8.100952
22.348572
20.767670
19.187775
17.609467
16.033417
14.460236
12.890533
11.324951
9.764099
8.208557
22.435059
20.856842
19.279724
17.704315
16.131226
14.561127
12.994598
11.432281
9.874756
8.322632
22.519562
20.944885
19.371399
17.799713
16.230469
14.664276
13.101776
11.543518
9.990173
8.442291
22.601227
21.030914
19.461914
17.894806
16.330231
14.768799
13.211090
11.657806
10.109436
8.566620
22.679230
21.114136
19.550446
17.988739
16.429657
14.873779
13.321777
11.774170
10.231598
8.694672
22.752869
21.193787
19.636200
18.080719
16.527924
14.978455
13.432861
11.891785
10.355835
8.825531
22.821320
21.269073
19.718384
18.169891
16.624207
15.081879
13.543549
12.009796
10.481201
8.958344
22.883911
21.339264
19.796295
18.255585
16.717743
15.183350
13.653015
12.127319
10.606842
9.092133
21.358643
19.775818
18.193878
16.613434
15.035156
13.459686
11.887573
10.319489
8.756042
7.197815
21.446228
19.864532
18.283813
16.704742
15.127899
13.553925
11.983459
10.417114
8.855499
7.299164
21.533844
19.954163
18.375519
16.798645
15.224091
13.652527
12.084534
10.520752
8.961792
7.408234
21.620636
20.043793
18.468140
16.894287
15.322876
13.754547
12.189880
10.629517
9.074066
7.524078
21.705780
20.132599
18.560760
16.990784
15.423370
13.859131
12.298615
10.742523
9.191376
7.645782
21.788422
20.219788
18.652588
17.087372
15.524780
13.965424
12.409912
10.858856
9.312866
7.772491
21.867798
20.304535
18.742798
17.183136
15.626190
14.072571
12.522858
10.977661
9.437622
7.903229
21.943176
20.386108
18.830597
17.277313
15.726807
14.179718
12.636597
11.098083
9.564758
8.037201
22.013794
20.463684
18.915283
17.369080
15.825836
14.286041
12.750305
11.219238
9.693420
8.173401
22.078949
20.536621
18.996002
17.457764
15.922516
14.390778
12.863190
11.340332
9.822754
8.311035
20.545105
18.963470
17.382812
15.803772
14.226990
12.653107
11.082703
9.516388
7.954834
6.398560
20.632172
19.051819
17.472565
15.895050
14.319885
12.747681
11.179077
9.614685
8.055084
6.500916
20.719604
19.141388
17.564423
15.989258
14.416534
12.846893
11.280914
9.719269
8.162506
6.611237
20.806519
19.231323
17.657440
16.085510
14.516083
12.949860
11.387360
9.829285
8.276184
6.728638
20.892090
19.320770
17.750854
16.182983
14.617706
13.055695
11.497528
9.943848
8.395233
6.852234
20.975555
19.408936
17.843842
16.280823
14.720520
13.163574
11.610565
10.062073
8.518738
6.981110
21.056122
19.495026
17.935516
16.378235
14.823730
13.272644
11.725586
10.183136
8.645874
7.114380
21.133057
19.578308
18.025208
16.474426
14.926544
13.382111
11.841766
10.306122
8.775726
7.251190
21.205658
19.658020
18.112122
16.568634
15.028107
13.491119
11.958344
10.430237
8.907501
7.390625
21.273285
19.733490
18.195587
16.660156
15.127747
13.598969
12.074432
10.554688
9.040314
7.531860
19.732727
18.152588
16.573547
14.996246
13.421295
11.849304
10.280884
8.716705
7.157318
5.603302
19.819122
18.240448
16.662964
15.087311
13.514130
11.944000
10.377594
8.815460
7.258209
5.706451
19.906158
18.329803
16.754761
15.181641
13.611053
12.043671
10.480042
8.920807
7.366547
5.817871
19.993011
18.419830
16.848083
15.278320
13.711212
12.147369
10.587402
9.031891
7.481445
5.936676
20.078888
18.509735
16.942078
15.376556
13.813751
12.254303
10.698792
9.147827
7.602020
6.061920
20.162964
18.598694
17.036011
15.475494
13.917847
12.363586
10.813385
9.267761
7.727386
6.192810
20.244568
18.685944
17.128998
15.574371
14.022644
12.474396
10.930298
9.390839
7.856689
6.328400
20.322876
18.770752
17.220398
15.672424
14.127380
12.585999
11.048737
9.516266
7.989105
6.467834
20.397308
18.852417
17.309418
15.768860
14.231354
12.697540
11.167938
9.643127
8.123749
6.610291
20.467133
18.930267
17.395386
15.863007
14.333771
12.808258
11.287079
9.770752
8.259857
6.754944
18.921875
17.343536
15.766449
14.191162
12.618347
11.048584
9.482513
7.920715
6.363800
4.812378
19.007355
17.430695
15.855316
14.281860
12.710999
11.143280
9.579315
8.019745
6.465179
4.916168
19.093842
17.519653
15.946869
14.376129
12.808014
11.243195
9.682190
8.125702
6.574249
5.028473
19.180481
17.609650
16.040283
14.473083
12.908600
11.347473
9.790283
8.237671
6.690216
5.148468
19.266479
17.699799
16.134735
14.571899
13.011871
11.455292
9.902740
8.354797
6.812103
5.275208
19.351044
17.789368
16.229401
14.671753
13.117004
11.565796
10.018677
8.476257
6.939148
5.407867
19.433441
17.877594
16.323547
14.771912
13.223236
11.678192
10.137299
8.601166
7.070404
5.545593
19.513000
17.963776
16.416473
14.871582
13.329773
11.791656
10.257812
8.728760
7.205139
5.687469
19.589050
18.047241
16.507385
14.970093
13.435944
11.905518
10.379425
8.858246
7.342499
5.832764
19.660950
18.127289
16.595673
15.066711
13.540955
12.018982
10.501434
8.988800
7.481659
5.980621
18.112823
16.536652
14.961792
13.388885
11.818481
10.251282
8.687836
7.128754
5.574646
4.026093
18.197266
16.622925
15.049988
13.479034
11.910767
10.345764
8.784607
7.227905
5.676300
4.130310
18.283020
16.711334
15.141144
13.573090
12.007751
10.445770
8.887756
7.334259
5.785950
4.243347
18.369263
16.801086
15.234467
13.670105
12.108551
10.550446
8.996399
7.446960
5.902740
4.364349
18.455200
16.891327
15.329163
13.769318
12.212402
10.658966
9.109680
7.565094
6.025818
4.492401
18.540070
16.981354
15.424438
13.869904
12.318390
10.770508
9.226807
7.687866
6.154297
4.626678
18.623108
17.070374
15.519531
13.971161
12.425873
10.884277
9.346924
7.814423
6.287384
4.766296
18.703735
17.157776
15.613739
14.072296
12.534027
10.999512
9.469299
7.944031
6.424225
4.910431
18.781219
17.242798
15.706390
14.172668
12.642151
11.115479
9.593170
8.075867
6.564056
5.058319
18.855042
17.324890
15.796844
14.271576
12.749573
11.231476
9.717804
8.209167
6.706116
5.209137
17.305939
15.732239
14.159943
12.589691
11.022064
9.457703
7.897186
6.341125
4.790100
3.244720
17.389191
15.817474
14.247253
12.679169
11.113800
9.551819
7.993744
6.440247
4.891876
3.349213
17.474060
15.905151
14.337860
12.772797
11.210541
9.651733
8.096985
6.546844
5.001923
3.462799
17.559723
15.994476
14.430939
12.869720
11.311401
9.756622
8.205994
6.660034
5.119385
3.584625
17.645416
16.084656
14.525696
12.969147
11.415619
9.865662
8.319946
6.779022
5.243439
3.713776
17.730377
16.174927
14.621399
13.070312
11.522339
9.978058
8.438080
6.902893
5.373169
3.849457
17.813934
16.264618
14.717255
13.172485
11.630859
10.093048
8.559509
7.030945
5.507843
3.990784
17.895416
16.352997
14.812622
13.274902
11.740448
10.209808
8.683563
7.162323
5.646606
4.137024
17.974213
16.439423
14.906830
13.376923
11.850372
10.327698
8.809479
7.296326
5.788757
4.287292
18.049713
16.523376
14.999237
13.477905
11.959991
10.446014
8.936554
7.432190
5.933472
4.440887
16.501526
14.930634
13.361237
11.793945
10.229401
8.668182
7.110901
5.558167
4.010498
2.468536
16.583405
15.014648
13.447479
11.882538
10.320435
8.761749
7.207092
5.657043
4.112213
2.573151
16.667236
15.101440
13.537354
11.975586
10.416718
8.861420
7.310211
5.763702
4.222473
2.687134
16.752167
15.190186
13.630005
12.072235
10.517487
8.966339
7.419403
5.877258
4.340454
2.809570
16.837433
15.280121
13.724670
12.171722
10.621887
9.075745
7.533844
5.996857
4.465271
2.939667
16.922363
15.370483
13.820587
12.273285
10.729156
9.188782
7.652771
6.121674
4.596100
3.076569
17.006226
15.460602
13.917053
12.376160
10.838531
9.304749
7.775391
6.250977
4.732147
3.219421
17.088409
15.549805
14.013397
12.479675
10.949341
9.422882
7.900909
6.383972
4.872681
3.367493
17.168304
15.637512
14.108917
12.583191
11.060883
9.542511
8.028687
6.519989
5.016876
3.519958
17.245361
15.723083
14.203125
12.686096
11.172516
9.662964
8.157990
6.658203
5.164062
3.676147

SCALARS Alpha float 1
LOOKUP_TABLE default
0.135341
0.251687
0.367989
0.484214
0.600329
0.716299
0.832093
0.947675
1.063014
1.178078
0.241580
0.357900
0.474168
0.590349
0.706412
0.822320
0.938043
1.053545
1.168796
1.283762
0.347675
0.463931
0.580125
0.696224
0.812195
0.928003
1.043617
1.159002
1.274126
1.388957
0.453520
0.569672
0.685754
0.801732
0.917573
1.033243
1.148709
1.263938
1.378899
1.493559
0.559008
0.675018
0.790949
0.906768
1.022441
1.137935
1.253217
1.368253
1.483014
1.597465
0.664034
0.779865
0.895608
1.011231
1.126698
1.241979
1.357040
1.471848
1.586372
1.700580
0.768500
0.884114
0.999632
1.115021
1.230248
1.345280
1.460084
1.574629
1.688882
1.802812
0.872306
0.987669
1.102926
1.218047
1.332996
1.447745
1.562258
1.676504
1.790452
1.904071
0.975361
1.090436
1.205399
1.320216
1.434856
1.549286
1.663475
1.777390
1.891001
2.004277
1.077577
1.192331
1.306965
1.421446
1.535743
1.649823
1.763655
1.877208
1.990450
2.103352
0.256901
0.373227
0.489494
0.605669
0.721717
0.837606
0.953302
1.068772
1.183983
1.298904
0.363110
0.479405
0.595631
0.711755
0.827745
0.943565
1.059184
1.174568
1.289684
1.404501
0.469130
0.585353
0.701499
0.817535
0.933426
1.049140
1.164643
1.279903
1.394887
1.509563
0.574851
0.690964
0.806992
0.922900
1.038655
1.154224
1.269574
1.384672
1.499486
1.613985
0.680169
0.796134
0.912004
1.027747
1.143328
1.258715
1.373874
1.488774
1.603382
1.717667
0.784979
0.900759
1.016435
1.131974
1.247344
1.362512
1.477445
1.592111
1.706477
1.820513
0.889183
1.004739
1.120184
1.235485
1.350608
1.465521
1.580192
1.694588
1.808677
1.922430
0.992682
1.107980
1.223159
1.338185
1.453026
1.567649
1.682023
1.796116
1.909895
2.023332
1.095385
1.210390
1.325268
1.439985
1.554510
1.668810
1.782855
1.896611
2.010049
2.123137
1.197205
1.311883
1.426426
1.540802
1.654978
1.768924
1.882607
1.995995
2.109059
2.221769
0.378405
0.494695
0.610909
0.727016
0.842981
0.958771
1.074352
1.189692
1.304759
1.419520
0.484575
0.600826
0.716994
0.833044
0.948943
1.064658
1.180156
1.295404
1.410369
1.525021
0.590509
0.706682
0.822763
0.938717
1.054512
1.170114
1.285491
1.400609
1.515436
1.629940
0.696097
0.812154
0.928110
1.043931
1.159583
1.275035
1.390252
1.505202
1.619853
1.734174
0.801236
0.917138
1.032931
1.148580
1.264052
1.379315
1.494336
1.609082
1.723522
1.837623
0.905821
1.021532
1.137124
1.252564
1.367819
1.482857
1.597645
1.712151
1.826344
1.940192
1.009754
1.125236
1.240591
1.355786
1.470788
1.585566
1.700087
1.814317
1.928228
2.041788
1.112938
1.228155
1.343238
1.458152
1.572867
1.687350
1.801568
1.915491
2.029087
2.142324
1.215281
1.330200
1.444975
1.559576
1.673969
1.788124
1.902007
2.015589
2.128838
2.241723
1.316697
1.431284
1.545719
1.659973
1.774013
1.887807
2.001324
2.114533
2.227404
2.339907
0.499809
0.616045
0.732190
0.848211
0.964075
1.079748
1.195198
1.310392
1.425297
1.539883
0.605931
0.722121
0.838212
0.954170
1.069962
1.185555
1.300915
1.416010
1.530809
1.645279
0.711769
0.827875
0.943873
1.059729
1.175410
1.290884
1.406116
1.521076
1.635730
1.750046
0.817215
0.933199
1.049065
1.164781
1.280314
1.395630
1.510698
1.625484
1.739956
1.854085
0.922165
1.037988
1.153685
1.269224
1.384571
1.499693
1.614558
1.729134
1.843390
1.957293
1.026517
1.142141
1.257632
1.372956
1.488080
1.602971
1.717599
1.831929
1.945932
2.059576
1.130171
1.245560
1.360808
1.475881
1.590747
1.705372
1.819726
1.933777
2.047493
2.160843
1.233031
1.348150
1.463120
1.577907
1.692479
1.806805
1.920852
2.034589
2.147985
2.261009
1.335007
1.449822
1.564479
1.678946
1.793192
1.907184
2.020892
2.134283
2.247328
2.359995
1.436013
1.550490
1.664803
1.778918
1.892805
2.006432
2.119768
2.232782
2.345444
2.457725
0.621070
0.737234
0.853291
0.969210
1.084956
1.200496
1.315798
1.430829
1.545557
1.659951
0.727133
0.843245
0.959242
1.075091
1.190759
1.306212
1.421418
1.536345
1.650959
1.765232
0.832865
0.948887
1.064785
1.180526
1.296077
1.411405
1.526477
1.641262
1.755726
1.869840
0.938160
1.054053
1.169813
1.285408
1.400805
1.515970
1.630871
1.745476
1.859754
1.973674
1.042913
1.158639
1.274224
1.389635
1.504840
1.619805
1.734499
1.848888
1.962944
2.076632
1.147023
1.262544
1.377917
1.493107
1.608083
1.722812
1.837262
1.951402
2.065199
2.178624
1.250389
1.365670
1.480794
1.595728
1.710440
1.824898
1.939070
2.052924
2.166430
2.279556
1.352919
1.467923
1.582764
1.697407
1.811820
1.925973
2.039832
2.153368
2.266549
2.379345
1.454520
1.569215
1.683738
1.798056
1.912138
2.025952
2.139467
2.252652
2.365478
2.477912
1.555110
1.669462
1.783634
1.897595
2.011313
2.124758
2.237897
2.350701
2.463140
2.575184
0.742143
0.858217
0.974171
1.089970
1.205580
1.320971
1.436109
1.550961
1.665496
1.779682
0.848137
0.964154
1.080040
1.195764
1.311290
1.426588
1.541623
1.656364
1.770780
1.884839
0.953755
1.069675
1.185456
1.301065
1.416469
1.531635
1.646531
1.761124
1.875384
1.989279
1.058890
1.174674
1.290312
1.405768
1.521012
1.636009
1.750728
1.865137
1.979205
2.092900
1.163437
1.279049
1.394505
1.509772
1.624818
1.739609
1.854115
1.968304
2.082143
2.195603
1.267295
1.382697
1.497935
1.612976
1.727787
1.842338
1.956595
2.070528
2.184104
2.297295
1.370367
1.485523
1.600506
1.715285
1.829828
1.944101
2.058075
2.171718
2.284998
2.397886
1.472558
1.587432
1.702126
1.816609
1.930848
2.044811
2.158469
2.271788
2.384739
2.497293
1.573780
1.688338
1.802709
1.916862
2.030764
2.144384
2.257692
2.370657
2.483248
2.595436
1.673947
1.788157
1.902173
2.015964
2.129497
2.242743
2.355671
2.468251
2.580452
2.692245
0.862985
0.978953
1.094785
1.210447
1.325907
1.441131
1.556088
1.670745
1.785071
1.899034
0.968901
1.084805
1.200564
1.316144
1.431513
1.546638
1.661487
1.776028
1.890229
2.004059
1.074395
1.190196
1.305843
1.421303
1.536544
1.651532
1.766235
1.880622
1.994662
2.108323
1.179360
1.295020
1.410518
1.525820
1.640894
1.755707
1.870229
1.984426
2.098267
2.211723
1.283693
1.399174
1.514484
1.629591
1.744462
1.859064
1.973367
2.087338
2.200947
2.314163
1.387293
1.502558
1.617645
1.732520
1.847151
1.961506
2.075556
2.189266
2.302607
2.415549
1.490063
1.605076
1.719902
1.834510
1.948867
2.062942
2.176702
2.290118
2.403158
2.515793
1.591909
1.706635
1.821167
1.935473
2.049522
2.163281
2.276720
2.389808
2.502515
2.614811
1.692743
1.807148
1.921353
2.035324
2.149031
2.262443
2.375528
2.488258
2.600600
2.712527
1.792482
1.906534
2.020378
2.133983
2.247317
2.360351
2.473052
2.585392
2.697341
2.808869
0.983552
1.099397
1.215091
1.330600
1.445892
1.560934
1.675694
1.790141
1.904242
2.017968
1.089381
1.205156
1.320770
1.436191
1.551387
1.666323
1.780970
1.895294
2.009265
2.122852
1.194742
1.310408
1.425904
1.541200
1.656260
1.771054
1.885549
1.999714
2.113518
2.226931
1.299529
1.415048
1.530389
1.645520
1.760409
1.875022
1.989330
2.103300
2.216901
2.330103
1.403639
1.518973
1.634122
1.749052
1.863732
1.978129
2.092213
2.205952
2.319316
2.432272
1.506973
1.622086
1.737004
1.851698
1.966133
2.080278
2.194104
2.307577
2.420668
2.533346
1.609434
1.724288
1.838942
1.953363
2.067519
2.181378
2.294910
2.408084
2.520870
2.633237
1.710928
1.825490
1.939844
2.053959
2.167801
2.281341
2.394547
2.507389
2.619838
2.731863
1.811369
1.925606
2.039627
2.153402
2.266899
2.380086
2.492936
2.605414
2.717495
2.829147
1.910674
2.024553
2.138210
2.251614
2.364733
2.477538
2.589999
2.702086
2.813768
2.925019
1.103804
1.219509
1.335047
1.450387
1.565495
1.680339
1.794887
1.909107
2.022969
2.136442
1.209535
1.325164
1.440618
1.555863
1.670868
1.785601
1.900029
2.014122
2.127848
2.241177
1.314754
1.430268
1.545597
1.660711
1.775576
1.890160
2.004432
2.118360
2.231914
2.345063
1.419355
1.534715
1.649884
1.764828
1.879515
1.993914
2.107993
2.221721
2.335067
2.448001
1.523235
1.638405
1.753375
1.868112
1.982586
2.096763
2.210614
2.324105
2.437209
2.549893
1.626294
1.741237
1.855973
1.970468
2.084692
2.198613
2.312199
2.425421
2.538247
2.650649
1.728439
1.843119
1.957584
2.071802
2.185742
2.299371
2.412660
2.525578
2.638096
2.750182
1.829575
1.943958
2.058119
2.172026
2.285647
2.398953
2.511912
2.624494
2.736670
2.848410
1.929618
2.043670
2.157493
2.271056
2.384328
2.497277
2.609874
2.722090
2.833894
2.945258
2.028485
2.142175
2.255629
2.368816
2.481707
2.594269
2.706475
2.818295
2.929698
3.040657
1.223696
1.339245
1.454613
1.569767
1.684675
1.799305
1.913625
2.027604
2.141212
2.254418
1.329322
1.444788
1.560064
1.675118
1.789918
1.904431
2.018627
2.132473
2.245939
2.358996
1.434390
1.549735
1.664882
1.779798
1.894452
2.008811
2.122844
2.236521
2.349810
2.462682
1.538796
1.653982
1.768962
1.883703
1.998174
2.112343
2.226177
2.339648
2.452725
2.565378
1.642437
1.757427
1.872203
1.986733
2.100985
2.214927
2.328528
2.441759
2.554589
2.666987
1.745216
1.859974
1.974510
2.088792
2.202789
2.316471
2.429804
2.542760
2.655308
2.767419
1.847038
1.961528
2.075788
2.189789
2.303497
2.416882
2.529914
2.642561
2.754796
2.866589
1.947811
2.061998
2.175950
2.289634
2.403020
2.516077
2.628775
2.741083
2.852973
2.964415
2.047449
2.161302
2.274912
2.388248
2.501279
2.613976
2.726308
2.838246
2.949761
3.060824
2.145874
2.259359
2.372595
2.485553
2.598199
2.710506
2.822443
2.933982
3.045092
3.155747
