# vtk DataFile Version 3.0
PINN prediction t=5958.62060546875
ASCII
DATASET UNSTRUCTURED_GRID
POINTS 1000 float
0.000000 0.000000 0.000000
0.000000 0.000000 0.044444
0.000000 0.000000 0.088889
0.000000 0.000000 0.133333
0.000000 0.000000 0.177778
0.000000 0.000000 0.222222
0.000000 0.000000 0.266667
0.000000 0.000000 0.311111
0.000000 0.000000 0.355556
0.000000 0.000000 0.400000
0.000000 0.088889 0.000000
0.000000 0.088889 0.044444
0.000000 0.088889 0.088889
0.000000 0.088889 0.133333
0.000000 0.088889 0.177778
0.000000 0.088889 0.222222
0.000000 0.088889 0.266667
0.000000 0.088889 0.311111
0.000000 0.088889 0.355556
0.000000 0.088889 0.400000
0.000000 0.177778 0.000000
0.000000 0.177778 0.044444
0.000000 0.177778 0.088889
0.000000 0.177778 0.133333
0.000000 0.177778 0.177778
0.000000 0.177778 0.222222
0.000000 0.177778 0.266667
0.000000 0.177778 0.311111
0.000000 0.177778 0.355556
0.000000 0.177778 0.400000
0.000000 0.266667 0.000000
0.000000 0.266667 0.044444
0.000000 0.266667 0.088889
0.000000 0.266667 0.133333
0.000000 0.266667 0.177778
0.000000 0.266667 0.222222
0.000000 0.266667 0.266667
0.000000 0.266667 0.311111
0.000000 0.266667 0.355556
0.000000 0.266667 0.400000
0.000000 0.355556 0.000000
0.000000 0.355556 0.044444
0.000000 0.355556 0.088889
0.000000 0.355556 0.133333
0.000000 0.355556 0.177778
0.000000 0.355556 0.222222
0.000000 0.355556 0.266667
0.000000 0.355556 0.311111
0.000000 0.355556 0.355556
0.000000 0.355556 0.400000
0.000000 0.444444 0.000000
0.000000 0.444444 0.044444
0.000000 0.444444 0.088889
0.000000 0.444444 0.133333
0.000000 0.444444 0.177778
0.000000 0.444444 0.222222
0.000000 0.444444 0.266667
0.000000 0.444444 0.311111
0.000000 0.444444 0.355556
0.000000 0.444444 0.400000
0.000000 0.533333 0.000000
0.000000 0.533333 0.044444
0.000000 0.533333 0.088889
0.000000 0.533333 0.133333
0.000000 0.533333 0.177778
0.000000 0.533333 0.222222
0.000000 0.533333 0.266667
0.000000 0.533333 0.311111
0.000000 0.533333 0.355556
0.000000 0.533333 0.400000
0.000000 0.622222 0.000000
0.000000 0.622222 0.044444
0.000000 0.622222 0.088889
0.000000 0.622222 0.133333
0.000000 0.622222 0.177778
0.000000 0.622222 0.222222
0.000000 0.622222 0.266667
0.000000 0.622222 0.311111
0.000000 0.622222 0.355556
0.000000 0.622222 0.400000
0.000000 0.711111 0.000000
0.000000 0.711111 0.044444
0.000000 0.711111 0.088889
0.000000 0.711111 0.133333
0.000000 0.711111 0.177778
0.000000 0.711111 0.222222
0.000000 0.711111 0.266667
0.000000 0.711111 0.311111
0.000000 0.711111 0.355556
0.000000 0.711111 0.400000
0.000000 0.800000 0.000000
0.000000 0.800000 0.044444
0.000000 0.800000 0.088889
0.000000 0.800000 0.133333
0.000000 0.800000 0.177778
0.000000 0.800000 0.222222
0.000000 0.800000 0.266667
0.000000 0.800000 0.311111
0.000000 0.800000 0.355556
0.000000 0.800000 0.400000
0.044444 0.000000 0.000000
0.044444 0.000000 0.044444
0.044444 0.000000 0.088889
0.044444 0.000000 0.133333
0.044444 0.000000 0.177778
0.044444 0.000000 0.222222
0.044444 0.000000 0.266667
0.044444 0.000000 0.311111
0.044444 0.000000 0.355556
0.044444 0.000000 0.400000
0.044444 0.088889 0.000000
0.044444 0.088889 0.044444
0.044444 0.088889 0.088889
0.044444 0.088889 0.133333
0.044444 0.088889 0.177778
0.044444 0.088889 0.222222
0.044444 0.088889 0.266667
0.044444 0.088889 0.311111
0.044444 0.088889 0.355556
0.044444 0.088889 0.400000
0.044444 0.177778 0.000000
0.044444 0.177778 0.044444
0.044444 0.177778 0.088889
0.044444 0.177778 0.133333
0.044444 0.177778 0.177778
0.044444 0.177778 0.222222
0.044444 0.177778 0.266667
0.044444 0.177778 0.311111
0.044444 0.177778 0.355556
0.044444 0.177778 0.400000
0.044444 0.266667 0.000000
0.044444 0.266667 0.044444
0.044444 0.266667 0.088889
0.044444 0.266667 0.133333
0.044444 0.266667 0.177778
0.044444 0.266667 0.222222
0.044444 0.266667 0.266667
0.044444 0.266667 0.311111
0.044444 0.266667 0.355556
0.044444 0.266667 0.400000
0.044444 0.355556 0.000000
0.044444 0.355556 0.044444
0.044444 0.355556 0.088889
0.044444 0.355556 0.133333
0.044444 0.355556 0.177778
0.044444 0.355556 0.222222
0.044444 0.355556 0.266667
0.044444 0.355556 0.311111
0.044444 0.355556 0.355556
0.044444 0.355556 0.400000
0.044444 0.444444 0.000000
0.044444 0.444444 0.044444
0.044444 0.444444 0.088889
0.044444 0.444444 0.133333
0.044444 0.444444 0.177778
0.044444 0.444444 0.222222
0.044444 0.444444 0.266667
0.044444 0.444444 0.311111
0.044444 0.444444 0.355556
0.044444 0.444444 0.400000
0.044444 0.533333 0.000000
0.044444 0.533333 0.044444
0.044444 0.533333 0.088889
0.044444 0.533333 0.133333
0.044444 0.533333 0.177778
0.044444 0.533333 0.222222
0.044444 0.533333 0.266667
0.044444 0.533333 0.311111
0.044444 0.533333 0.355556
0.044444 0.533333 0.400000
0.044444 0.622222 0.000000
0.044444 0.622222 0.044444
0.044444 0.622222 0.088889
0.044444 0.622222 0.133333
0.044444 0.622222 0.177778
0.044444 0.622222 0.222222
0.044444 0.622222 0.266667
0.044444 0.622222 0.311111
0.044444 0.622222 0.355556
0.044444 0.622222 0.400000
0.044444 0.711111 0.000000
0.044444 0.711111 0.044444
0.044444 0.711111 0.088889
0.044444 0.711111 0.133333
0.044444 0.711111 0.177778
0.044444 0.711111 0.222222
0.044444 0.711111 0.266667
0.044444 0.711111 0.311111
0.044444 0.711111 0.355556
0.044444 0.711111 0.400000
0.044444 0.800000 0.000000
0.044444 0.800000 0.044444
0.044444 0.800000 0.088889
0.044444 0.800000 0.133333
0.044444 0.800000 0.177778
0.044444 0.800000 0.222222
0.044444 0.800000 0.266667
0.044444 0.800000 0.311111
0.044444 0.800000 0.355556
0.044444 0.800000 0.400000
0.088889 0.000000 0.000000
0.088889 0.000000 0.044444
0.088889 0.000000 0.088889
0.088889 0.000000 0.133333
0.088889 0.000000 0.177778
0.088889 0.000000 0.222222
0.088889 0.000000 0.266667
0.088889 0.000000 0.311111
0.088889 0.000000 0.355556
0.088889 0.000000 0.400000
0.088889 0.088889 0.000000
0.088889 0.088889 0.044444
0.088889 0.088889 0.088889
0.088889 0.088889 0.133333
0.088889 0.088889 0.177778
0.088889 0.088889 0.222222
0.088889 0.088889 0.266667
0.088889 0.088889 0.311111
0.088889 0.088889 0.355556
0.088889 0.088889 0.400000
0.088889 0.177778 0.000000
0.088889 0.177778 0.044444
0.088889 0.177778 0.088889
0.088889 0.177778 0.133333
0.088889 0.177778 0.177778
0.088889 0.177778 0.222222
0.088889 0.177778 0.266667
0.088889 0.177778 0.311111
0.088889 0.177778 0.355556
0.088889 0.177778 0.400000
0.088889 0.266667 0.000000
0.088889 0.266667 0.044444
0.088889 0.266667 0.088889
0.088889 0.266667 0.133333
0.088889 0.266667 0.177778
0.088889 0.266667 0.222222
0.088889 0.266667 0.266667
0.088889 0.266667 0.311111
0.088889 0.266667 0.355556
0.088889 0.266667 0.400000
0.088889 0.355556 0.000000
0.088889 0.355556 0.044444
0.088889 0.355556 0.088889
0.088889 0.355556 0.133333
0.088889 0.355556 0.177778
0.088889 0.355556 0.222222
0.088889 0.355556 0.266667
0.088889 0.355556 0.311111
0.088889 0.355556 0.355556
0.088889 0.355556 0.400000
0.088889 0.444444 0.000000
0.088889 0.444444 0.044444
0.088889 0.444444 0.088889
0.088889 0.444444 0.133333
0.088889 0.444444 0.177778
0.088889 0.444444 0.222222
0.088889 0.444444 0.266667
0.088889 0.444444 0.311111
0.088889 0.444444 0.355556
0.088889 0.444444 0.400000
0.088889 0.533333 0.000000
0.088889 0.533333 0.044444
0.088889 0.533333 0.088889
0.088889 0.533333 0.133333
0.088889 0.533333 0.177778
0.088889 0.533333 0.222222
0.088889 0.533333 0.266667
0.088889 0.533333 0.311111
0.088889 0.533333 0.355556
0.088889 0.533333 0.400000
0.088889 0.622222 0.000000
0.088889 0.622222 0.044444
0.088889 0.622222 0.088889
0.088889 0.622222 0.133333
0.088889 0.622222 0.177778
0.088889 0.622222 0.222222
0.088889 0.622222 0.266667
0.088889 0.622222 0.311111
0.088889 0.622222 0.355556
0.088889 0.622222 0.400000
0.088889 0.711111 0.000000
0.088889 0.711111 0.044444
0.088889 0.711111 0.088889
0.088889 0.711111 0.133333
0.088889 0.711111 0.177778
0.088889 0.711111 0.222222
0.088889 0.711111 0.266667
0.088889 0.711111 0.311111
0.088889 0.711111 0.355556
0.088889 0.711111 0.400000
0.088889 0.800000 0.000000
0.088889 0.800000 0.044444
0.088889 0.800000 0.088889
0.088889 0.800000 0.133333
0.088889 0.800000 0.177778
0.088889 0.800000 0.222222
0.088889 0.800000 0.266667
0.088889 0.800000 0.311111
0.088889 0.800000 0.355556
0.088889 0.800000 0.400000
0.133333 0.000000 0.000000
0.133333 0.000000 0.044444
0.133333 0.000000 0.088889
0.133333 0.000000 0.133333
0.133333 0.000000 0.177778
0.133333 0.000000 0.222222
0.133333 0.000000 0.266667
0.133333 0.000000 0.311111
0.133333 0.000000 0.355556
0.133333 0.000000 0.400000
0.133333 0.088889 0.000000
0.133333 0.088889 0.044444
0.133333 0.088889 0.088889
0.133333 0.088889 0.133333
0.133333 0.088889 0.177778
0.133333 0.088889 0.222222
0.133333 0.088889 0.266667
0.133333 0.088889 0.311111
0.133333 0.088889 0.355556
0.133333 0.088889 0.400000
0.133333 0.177778 0.000000
0.133333 0.177778 0.044444
0.133333 0.177778 0.088889
0.133333 0.177778 0.133333
0.133333 0.177778 0.177778
0.133333 0.177778 0.222222
0.133333 0.177778 0.266667
0.133333 0.177778 0.311111
0.133333 0.177778 0.355556
0.133333 0.177778 0.400000
0.133333 0.266667 0.000000
0.133333 0.266667 0.044444
0.133333 0.266667 0.088889
0.133333 0.266667 0.133333
0.133333 0.266667 0.177778
0.133333 0.266667 0.222222
0.133333 0.266667 0.266667
0.133333 0.266667 0.311111
0.133333 0.266667 0.355556
0.133333 0.266667 0.400000
0.133333 0.355556 0.000000
0.133333 0.355556 0.044444
0.133333 0.355556 0.088889
0.133333 0.355556 0.133333
0.133333 0.355556 0.177778
0.133333 0.355556 0.222222
0.133333 0.355556 0.266667
0.133333 0.355556 0.311111
0.133333 0.355556 0.355556
0.133333 0.355556 0.400000
0.133333 0.444444 0.000000
0.133333 0.444444 0.044444
0.133333 0.444444 0.088889
0.133333 0.444444 0.133333
0.133333 0.444444 0.177778
0.133333 0.444444 0.222222
0.133333 0.444444 0.266667
0.133333 0.444444 0.311111
0.133333 0.444444 0.355556
0.133333 0.444444 0.400000
0.133333 0.533333 0.000000
0.133333 0.533333 0.044444
0.133333 0.533333 0.088889
0.133333 0.533333 0.133333
0.133333 0.533333 0.177778
0.133333 0.533333 0.222222
[...]
POINT_DATA 1000
SCALARS Temperature float 1
LOOKUP_TABLE default
160.966278
160.953278
160.940552
160.928070
160.915924
160.903839
160.892059
160.880493
160.869110
160.858002
160.959656
160.946777
160.934204
160.921814
160.909729
160.897736
160.886108
160.874664
160.863434
160.852356
160.953003
160.940338
160.927887
160.915558
160.903595
160.891754
160.880219
160.868835
160.857697
160.846771
160.946503
160.933868
160.921570
160.909332
160.897522
160.885803
160.874359
160.863190
160.852142
160.841278
160.940063
160.927612
160.915314
160.903351
160.891510
160.880035
160.868683
160.857513
160.846588
160.835907
160.933655
160.921295
160.909088
160.897247
160.885529
160.874054
160.862946
160.851837
160.841034
160.830536
160.927277
160.915009
160.903046
160.891266
160.879700
160.868408
160.857300
160.846344
160.835602
160.825226
160.920990
160.908875
160.896881
160.885284
160.873871
160.862640
160.851715
160.840912
160.830292
160.819916
160.914795
160.902740
160.890991
160.879486
160.868103
160.856995
160.846100
160.835419
160.824921
160.814636
160.908600
160.896637
160.885071
160.873718
160.862396
160.851379
160.840546
160.829987
160.819702
160.809479
160.972076
160.959076
160.946198
160.933685
160.921234
160.909088
160.897247
160.885529
160.874054
160.862885
160.965332
160.952454
160.939728
160.927338
160.915009
160.902954
160.891266
160.879669
160.868317
160.857269
160.958771
160.945831
160.933258
160.920959
160.908813
160.896881
160.885284
160.873810
160.862579
160.851593
160.952179
160.939484
160.926971
160.914795
160.902679
160.890991
160.879425
160.868134
160.856964
160.846130
160.945557
160.933105
160.920715
160.908630
160.896698
160.885040
160.873566
160.862366
160.851349
160.840576
160.939117
160.926727
160.914429
160.902496
160.890778
160.879181
160.867889
160.856720
160.845795
160.835175
160.932709
160.920410
160.908325
160.896454
160.884827
160.873322
160.862152
160.851166
160.840363
160.829742
160.926392
160.914215
160.902191
160.890381
160.878937
160.867584
160.856537
160.845551
160.834930
160.824432
160.920074
160.908051
160.896149
160.884491
160.873077
160.861847
160.850922
160.840057
160.829590
160.819214
160.913940
160.901947
160.890167
160.878693
160.867310
160.856232
160.845337
160.834686
160.824188
160.813995
160.977997
160.964722
160.951843
160.939148
160.926727
160.914459
160.902435
160.890747
160.879181
160.867859
160.971222
160.958191
160.945282
160.932648
160.920380
160.908295
160.896393
160.884796
160.873413
160.862091
160.964508
160.951508
160.938873
160.926392
160.914215
160.902191
160.890381
160.878876
160.867584
160.856445
160.957794
160.944977
160.932465
160.920074
160.907990
160.896149
160.884430
160.873016
160.861786
160.850861
160.951202
160.938568
160.926117
160.913910
160.901947
160.890167
160.878693
160.867310
160.856201
160.845306
160.944733
160.932190
160.919769
160.907776
160.895874
160.884308
160.872833
160.861603
160.850555
160.839874
160.938324
160.925873
160.913544
160.901642
160.889862
160.878510
160.867096
160.855957
160.845093
160.834442
160.931854
160.919525
160.907501
160.895599
160.883972
160.872589
160.861359
160.850281
160.839569
160.829041
160.925598
160.913300
160.901428
160.889618
160.878113
160.866852
160.855743
160.844818
160.834198
160.823700
160.919312
160.907135
160.895355
160.883759
160.872314
160.861115
160.850128
160.839386
160.828766
160.818512
160.983948
160.970551
160.957550
160.944733
160.932129
160.919830
160.907745
160.895966
160.884247
160.872833
160.977020
160.963837
160.950989
160.938293
160.925873
160.913605
160.901581
160.889862
160.878387
160.867035
160.970245
160.957245
160.944489
160.931854
160.919525
160.907440
160.895630
160.883942
160.872528
160.861298
160.963593
160.950653
160.937927
160.925568
160.913269
160.901337
160.889618
160.878143
160.866760
160.855682
160.956940
160.944122
160.931610
160.919281
160.907227
160.895294
160.883698
160.872253
160.861115
160.850067
160.950409
160.937714
160.925262
160.913055
160.901093
160.889343
160.877899
160.866577
160.855438
160.844574
160.943848
160.931305
160.918976
160.906891
160.895081
160.883453
160.872009
160.860809
160.849915
160.839050
160.937408
160.924957
160.912750
160.900757
160.889099
160.877594
160.866241
160.855225
160.844299
160.833771
160.931000
160.918671
160.906647
160.894806
160.883209
160.871796
160.860565
160.849640
160.838776
160.828339
160.924713
160.912445
160.900574
160.888824
160.877350
160.866089
160.854950
160.844086
160.833496
160.822968
160.989868
160.976471
160.963287
160.950348
160.937653
160.925262
160.912994
160.901062
160.889374
160.877838
160.982941
160.969666
160.956573
160.943756
160.931274
160.918976
160.906860
160.895050
160.883453
160.871979
160.976227
160.962982
160.950104
160.937408
160.925018
160.912689
160.900848
160.889069
160.877625
160.866241
160.969391
160.956329
160.943573
160.930939
160.918671
160.906647
160.894775
160.883148
160.871735
160.860626
160.962646
160.949799
160.937164
160.924713
160.912506
160.900543
160.888763
160.877289
160.866058
160.854919
160.956055
160.943298
160.930695
160.918457
160.906403
160.894531
160.882904
160.871490
160.860321
160.849396
160.949463
160.936859
160.924469
160.912231
160.900330
160.888550
160.877045
160.865753
160.854706
160.843811
160.942963
160.930450
160.918152
160.906128
160.894257
160.882660
160.871307
160.860077
160.849152
160.838409
160.936523
160.924072
160.912018
160.899994
160.888275
160.876862
160.865509
160.854401
160.843597
160.832947
160.930206
160.917877
160.905792
160.894012
160.882416
160.871002
160.859833
160.848877
160.838165
160.827637
160.995911
160.982361
160.969025
160.956024
160.943298
160.930695
160.918365
160.906342
160.894501
160.882904
160.988922
160.975555
160.962372
160.949432
160.936798
160.924408
160.912231
160.900299
160.888519
160.877045
160.982056
160.968719
160.955750
160.942963
160.930389
160.918182
160.906128
160.894257
160.882629
160.871307
160.975220
160.962128
160.949188
160.936432
160.924072
160.911957
160.899994
160.888336
160.876770
160.865509
160.968414
160.955383
160.942719
160.930176
160.917816
160.905853
160.893951
160.882355
160.871002
160.859802
160.961823
160.948883
160.936188
160.923798
160.911652
160.899750
160.888031
160.876556
160.865204
160.854218
160.955170
160.942383
160.929901
160.917542
160.905548
160.893707
160.882111
160.870697
160.859558
160.848602
160.948639
160.936005
160.923523
160.911377
160.899445
160.887726
160.876282
160.865082
160.853912
160.843170
160.942047
160.929626
160.917328
160.905304
160.893463
160.881866
160.870453
160.859344
160.848358
160.837585
160.935760
160.923309
160.911041
160.899200
160.887451
160.876007
160.864777
160.853729
160.842834
160.832245
161.001984
160.988312
160.974915
160.961761
160.948883
160.936188
160.923798
160.911652
160.899689
160.887970
160.995026
160.981415
160.968170
160.955170
160.942383
160.929840
160.917572
160.905487
160.893768
160.882111
160.987946
160.974579
160.961517
160.948578
160.935974
160.923492
160.911407
160.899506
160.887695
160.876251
160.981110
160.967773
160.954803
160.942047
160.929565
160.917267
160.905243
160.893402
160.881805
160.870453
160.974274
160.961182
160.948273
160.935699
160.923248
160.911072
160.899231
160.887451
160.875946
160.864777
160.967590
160.954559
160.941742
160.929291
160.917023
160.904999
160.893158
160.881500
160.870087
160.859039
160.960907
160.947968
160.935455
160.922943
160.910767
160.898895
160.887146
160.875732
160.864532
160.853424
160.954254
160.941528
160.929077
160.916748
160.904724
160.892944
160.881256
160.869843
160.858795
160.847870
160.947723
160.935120
160.922699
160.910492
160.898651
160.886932
160.875458
160.864227
160.853149
160.842377
160.941254
160.928802
160.916473
160.904449
160.892670
160.881073
160.869659
160.858459
160.847626
160.836945
161.008087
160.994263
160.980804
160.967499
160.954590
160.941742
160.929230
160.917023
160.904999
160.893127
161.001038
160.987335
160.974030
160.960846
160.947937
160.935455
160.922882
160.910828
160.898834
160.887146
160.993958
160.980469
160.967194
160.954254
160.941498
160.929047
160.916718
160.904694
160.892883
160.881256
160.987030
160.973694
160.960632
160.947662
160.935089
160.922699
160.910553
160.898621
160.886932
160.875458
160.980194
160.966949
160.953979
160.941162
160.928741
160.916412
160.904480
160.892609
160.881073
160.869690
160.973358
160.960266
160.947388
160.934784
160.922363
160.910187
160.898407
160.886688
160.875183
160.863983
160.966644
160.953644
160.940948
160.928436
160.916168
160.904114
160.892365
160.880829
160.869476
160.858246
160.959930
160.947144
160.934540
160.922119
160.909943
160.898132
160.886414
160.874969
160.863678
160.852692
160.953339
160.940582
160.928131
160.915894
160.903900
160.892059
160.880585
160.869171
160.858002
160.847137
160.946838
160.934235
160.921844
160.909698
160.897858
160.886169
160.874695
160.863464
160.852448
160.841614
161.014130
161.000336
160.986725
160.973297
160.960236
160.947388
160.934784
160.922394
160.910278
160.898376
161.007080
160.993378
160.979889
160.966583
160.953613
160.940918
160.928436
160.916168
160.904083
160.892273
161.000061
160.986420
160.973053
160.959991
160.947113
160.934448
160.922089
160.910004
160.898102
160.886414
160.993073
160.979523
160.966278
160.953339
160.940552
160.928131
160.915955
160.903839
160.892059
160.880524
160.986115
160.972748
160.959564
160.946808
160.934235
160.921844
160.909729
160.897797
160.886078
160.874695
160.979309
160.965973
160.953094
160.940338
160.927826
160.915588
160.903625
160.891754
160.880310
160.868927
160.972504
160.959381
160.946503
160.933929
160.921600
160.909332
160.897522
160.885864
160.874420
160.863251
160.965668
160.952789
160.940033
160.927612
160.915314
160.903351
160.891479
160.880035
160.868652
160.857574
160.959106
160.946198
160.933685
160.921295
160.909149
160.897247
160.885620
160.874115
160.862885
160.851837
160.952515
160.939758
160.927307
160.915070
160.903076
160.891327
160.879730
160.868439
160.857330
160.846344
161.020477
161.006470
160.992767
160.979279
160.965942
160.953003
160.940369
160.927826
160.915619
160.903595
161.013275
160.999390
160.985748
160.972443
160.959320
160.946503
160.933868
160.921570
160.909332
160.897491
161.006134
160.992340
160.979034
160.965637
160.952759
160.939972
160.927582
160.915344
160.903290
160.891449
160.999115
160.985504
160.972076
160.959076
160.946136
160.933716
160.921234
160.909088
160.897278
160.885590
160.992096
160.978668
160.965363
160.952484
160.939728
160.927277
160.915009
160.903046
160.891266
160.879669
160.985138
160.971893
160.958710
160.945892
160.933319
160.920929
160.908905
160.896942
160.885315
160.873932
160.978333
160.965088
160.952118
160.939484
160.927032
160.914795
160.902740
160.890961
160.879486
160.868134
160.971527
160.958435
160.945587
160.933075
160.920746
160.908661
160.896637
160.885101
160.873627
160.862335
160.964691
160.951874
160.939117
160.926727
160.914459
160.902496
160.890808
160.879181
160.867889
160.856720
160.958191
160.945343
160.932678
160.920441
160.908356
160.896393
160.884857
160.873322
160.862152
160.851227

SCALARS Alpha float 1
LOOKUP_TABLE default
-3.249933
-3.249422
-3.248924
-3.248434
-3.247955
-3.247484
-3.247022
-3.246568
-3.246125
-3.245689
-3.249670
-3.249167
-3.248673
-3.248189
-3.247713
-3.247248
-3.246789
-3.246341
-3.245899
-3.245470
-3.249411
-3.248912
-3.248424
-3.247945
-3.247474
-3.247011
-3.246557
-3.246115
-3.245680
-3.245252
-3.249155
-3.248662
-3.248177
-3.247703
-3.247236
-3.246779
-3.246331
-3.245889
-3.245461
-3.245038
-3.248901
-3.248414
-3.247933
-3.247464
-3.247002
-3.246549
-3.246104
-3.245669
-3.245243
-3.244823
-3.248651
-3.248166
-3.247693
-3.247225
-3.246768
-3.246319
-3.245881
-3.245450
-3.245028
-3.244614
-3.248401
-3.247923
-3.247453
-3.246991
-3.246537
-3.246093
-3.245658
-3.245233
-3.244814
-3.244403
-3.248155
-3.247679
-3.247215
-3.246757
-3.246311
-3.245872
-3.245439
-3.245018
-3.244604
-3.244196
-3.247911
-3.247442
-3.246980
-3.246526
-3.246084
-3.245649
-3.245222
-3.244803
-3.244395
-3.243992
-3.247671
-3.247204
-3.246745
-3.246300
-3.245861
-3.245429
-3.245008
-3.244593
-3.244185
-3.243788
-3.250161
-3.249648
-3.249144
-3.248649
-3.248166
-3.247691
-3.247225
-3.246768
-3.246320
-3.245880
-3.249896
-3.249388
-3.248890
-3.248402
-3.247922
-3.247454
-3.246990
-3.246538
-3.246094
-3.245658
-3.249636
-3.249131
-3.248641
-3.248156
-3.247679
-3.247216
-3.246758
-3.246311
-3.245872
-3.245440
-3.249378
-3.248879
-3.248390
-3.247912
-3.247441
-3.246979
-3.246527
-3.246085
-3.245650
-3.245222
-3.249120
-3.248627
-3.248146
-3.247669
-3.247203
-3.246747
-3.246300
-3.245860
-3.245429
-3.245009
-3.248868
-3.248378
-3.247900
-3.247430
-3.246969
-3.246516
-3.246074
-3.245639
-3.245212
-3.244795
-3.248616
-3.248134
-3.247658
-3.247195
-3.246738
-3.246289
-3.245852
-3.245422
-3.244999
-3.244584
-3.248369
-3.247890
-3.247420
-3.246958
-3.246507
-3.246063
-3.245629
-3.245203
-3.244787
-3.244375
-3.248122
-3.247649
-3.247183
-3.246725
-3.246279
-3.245840
-3.245411
-3.244987
-3.244573
-3.244169
-3.247878
-3.247409
-3.246949
-3.246496
-3.246054
-3.245620
-3.245193
-3.244776
-3.244366
-3.243963
-3.250390
-3.249871
-3.249363
-3.248869
-3.248378
-3.247900
-3.247430
-3.246968
-3.246517
-3.246072
-3.250123
-3.249611
-3.249109
-3.248616
-3.248133
-3.247659
-3.247195
-3.246738
-3.246290
-3.245852
-3.249861
-3.249353
-3.248856
-3.248368
-3.247889
-3.247418
-3.246960
-3.246507
-3.246065
-3.245628
-3.249599
-3.249098
-3.248604
-3.248122
-3.247650
-3.247183
-3.246726
-3.246279
-3.245842
-3.245411
-3.249343
-3.248845
-3.248356
-3.247878
-3.247409
-3.246949
-3.246497
-3.246053
-3.245620
-3.245193
-3.249087
-3.248594
-3.248110
-3.247637
-3.247172
-3.246715
-3.246268
-3.245830
-3.245399
-3.244978
-3.248834
-3.248345
-3.247866
-3.247396
-3.246937
-3.246486
-3.246043
-3.245609
-3.245183
-3.244766
-3.248582
-3.248099
-3.247625
-3.247163
-3.246705
-3.246257
-3.245821
-3.245390
-3.244970
-3.244555
-3.248334
-3.247855
-3.247387
-3.246928
-3.246475
-3.246032
-3.245598
-3.245175
-3.244754
-3.244346
-3.248088
-3.247615
-3.247152
-3.246696
-3.246249
-3.245811
-3.245380
-3.244959
-3.244546
-3.244142
-3.250621
-3.250100
-3.249588
-3.249087
-3.248593
-3.248110
-3.247637
-3.247171
-3.246715
-3.246269
-3.250354
-3.249837
-3.249329
-3.248833
-3.248345
-3.247867
-3.247398
-3.246938
-3.246484
-3.246043
-3.250087
-3.249578
-3.249076
-3.248581
-3.248100
-3.247625
-3.247162
-3.246705
-3.246258
-3.245820
-3.249824
-3.249320
-3.248822
-3.248333
-3.247855
-3.247387
-3.246926
-3.246475
-3.246034
-3.245596
-3.249565
-3.249064
-3.248570
-3.248089
-3.247615
-3.247152
-3.246695
-3.246249
-3.245810
-3.245380
-3.249307
-3.248809
-3.248322
-3.247846
-3.247376
-3.246916
-3.246466
-3.246023
-3.245589
-3.245164
-3.249052
-3.248560
-3.248076
-3.247605
-3.247140
-3.246686
-3.246238
-3.245800
-3.245370
-3.244950
-3.248799
-3.248311
-3.247832
-3.247366
-3.246907
-3.246456
-3.246013
-3.245578
-3.245155
-3.244738
-3.248550
-3.248065
-3.247593
-3.247131
-3.246674
-3.246228
-3.245790
-3.245360
-3.244941
-3.244527
-3.248300
-3.247824
-3.247355
-3.246896
-3.246445
-3.246003
-3.245570
-3.245147
-3.244726
-3.244318
-3.250856
-3.250329
-3.249812
-3.249306
-3.248809
-3.248323
-3.247845
-3.247376
-3.246917
-3.246466
-3.250585
-3.250065
-3.249553
-3.249051
-3.248560
-3.248077
-3.247604
-3.247141
-3.246683
-3.246238
-3.250318
-3.249800
-3.249296
-3.248798
-3.248311
-3.247833
-3.247365
-3.246907
-3.246454
-3.246013
-3.250053
-3.249541
-3.249039
-3.248548
-3.248066
-3.247593
-3.247130
-3.246674
-3.246227
-3.245790
-3.249787
-3.249283
-3.248787
-3.248300
-3.247821
-3.247356
-3.246896
-3.246446
-3.246004
-3.245571
-3.249530
-3.249030
-3.248536
-3.248056
-3.247583
-3.247118
-3.246662
-3.246218
-3.245779
-3.245351
-3.249271
-3.248775
-3.248289
-3.247812
-3.247346
-3.246884
-3.246434
-3.245993
-3.245560
-3.245135
-3.249018
-3.248526
-3.248045
-3.247572
-3.247108
-3.246654
-3.246207
-3.245769
-3.245341
-3.244920
-3.248764
-3.248278
-3.247801
-3.247333
-3.246874
-3.246423
-3.245982
-3.245550
-3.245125
-3.244708
-3.248514
-3.248033
-3.247561
-3.247097
-3.246644
-3.246197
-3.245759
-3.245330
-3.244912
-3.244499
-3.251093
-3.250561
-3.250039
-3.249530
-3.249028
-3.248538
-3.248054
-3.247582
-3.247119
-3.246662
-3.250817
-3.250293
-3.249776
-3.249271
-3.248775
-3.248289
-3.247812
-3.247346
-3.246886
-3.246433
-3.250550
-3.250028
-3.249517
-3.249018
-3.248526
-3.248046
-3.247571
-3.247108
-3.246654
-3.246209
-3.250280
-3.249765
-3.249261
-3.248765
-3.248278
-3.247800
-3.247333
-3.246875
-3.246423
-3.245983
-3.250016
-3.249505
-3.249005
-3.248516
-3.248034
-3.247560
-3.247098
-3.246642
-3.246197
-3.245758
-3.249755
-3.249249
-3.248752
-3.248266
-3.247791
-3.247320
-3.246864
-3.246414
-3.245972
-3.245540
-3.249494
-3.248995
-3.248504
-3.248022
-3.247550
-3.247087
-3.246631
-3.246187
-3.245749
-3.245321
-3.249236
-3.248739
-3.248257
-3.247778
-3.247312
-3.246853
-3.246404
-3.245962
-3.245529
-3.245107
-3.248982
-3.248492
-3.248012
-3.247538
-3.247077
-3.246621
-3.246176
-3.245740
-3.245312
-3.244891
-3.248729
-3.248244
-3.247768
-3.247301
-3.246844
-3.246393
-3.245950
-3.245519
-3.245095
-3.244679
-3.251331
-3.250794
-3.250269
-3.249755
-3.249249
-3.248752
-3.248266
-3.247789
-3.247321
-3.246863
-3.251055
-3.250524
-3.250005
-3.249495
-3.248995
-3.248504
-3.248021
-3.247549
-3.247087
-3.246632
-3.250782
-3.250258
-3.249742
-3.249237
-3.248741
-3.248255
-3.247779
-3.247312
-3.246853
-3.246402
-3.250511
-3.249992
-3.249482
-3.248982
-3.248492
-3.248010
-3.247537
-3.247076
-3.246623
-3.246177
-3.250244
-3.249729
-3.249226
-3.248728
-3.248244
-3.247768
-3.247301
-3.246843
-3.246393
-3.245951
-3.249980
-3.249471
-3.248971
-3.248481
-3.248002
-3.247527
-3.247065
-3.246611
-3.246166
-3.245730
-3.249719
-3.249215
-3.248719
-3.248235
-3.247756
-3.247292
-3.246832
-3.246383
-3.245941
-3.245509
-3.249460
-3.248959
-3.248468
-3.247988
-3.247517
-3.247056
-3.246600
-3.246156
-3.245718
-3.245291
-3.249202
-3.248706
-3.248221
-3.247746
-3.247280
-3.246821
-3.246373
-3.245931
-3.245499
-3.245076
-3.248947
-3.248459
-3.247979
-3.247504
-3.247045
-3.246590
-3.246145
-3.245708
-3.245281
-3.244861
-3.251569
-3.251030
-3.250500
-3.249981
-3.249472
-3.248972
-3.248481
-3.248000
-3.247528
-3.247065
-3.251292
-3.250756
-3.250233
-3.249719
-3.249216
-3.248719
-3.248232
-3.247756
-3.247291
-3.246832
-3.251016
-3.250487
-3.249968
-3.249460
-3.248958
-3.248469
-3.247989
-3.247516
-3.247055
-3.246601
-3.250743
-3.250220
-3.249706
-3.249202
-3.248707
-3.248221
-3.247746
-3.247278
-3.246821
-3.246372
-3.250474
-3.249956
-3.249447
-3.248949
-3.248458
-3.247979
-3.247505
-3.247045
-3.246591
-3.246146
-3.250210
-3.249695
-3.249190
-3.248695
-3.248212
-3.247736
-3.247268
-3.246811
-3.246362
-3.245921
-3.249943
-3.249434
-3.248935
-3.248446
-3.247968
-3.247495
-3.247034
-3.246578
-3.246135
-3.245699
-3.249683
-3.249180
-3.248683
-3.248200
-3.247725
-3.247258
-3.246801
-3.246354
-3.245909
-3.245479
-3.249423
-3.248924
-3.248434
-3.247957
-3.247485
-3.247022
-3.246568
-3.246125
-3.245689
-3.245261
-3.249167
-3.248673
-3.248190
-3.247713
-3.247247
-3.246791
-3.246342
-3.245901
-3.245470
-3.245048
-3.251811
-3.251267
-3.250732
-3.250210
-3.249696
-3.249190
-3.248696
-3.248210
-3.247735
-3.247269
-3.251532
-3.250992
-3.250462
-3.249943
-3.249435
-3.248935
-3.248446
-3.247967
-3.247495
-3.247035
-3.251253
-3.250721
-3.250196
-3.249682
-3.249181
-3.248684
-3.248200
-3.247724
-3.247258
-3.246800
-3.250980
-3.250451
-3.249933
-3.249423
-3.248924
-3.248434
-3.247957
-3.247484
-3.247022
-3.246568
-3.250708
-3.250184
-3.249671
-3.249167
-3.248674
-3.248189
-3.247714
-3.247247
-3.246789
-3.246341
-3.250439
-3.249920
-3.249412
-3.248911
-3.248425
-3.247944
-3.247474
-3.247012
-3.246558
-3.246115
-3.250174
-3.249660
-3.249155
-3.248664
-3.248177
-3.247702
-3.247237
-3.246779
-3.246330
-3.245891
-3.249908
-3.249400
-3.248901
-3.248414
-3.247934
-3.247465
-3.247002
-3.246548
-3.246104
-3.245669
-3.249648
-3.249145
-3.248651
-3.248167
-3.247693
-3.247226
-3.246769
-3.246320
-3.245882