# vtk DataFile Version 3.0
PINN prediction t=8937.9306640625
ASCII
DATASET UNSTRUCTURED_GRID
POINTS 1000 float
0.000000 0.000000 0.000000
0.000000 0.000000 0.044444
0.000000 0.000000 0.088889
0.000000 0.000000 0.133333
0.000000 0.000000 0.177778
0.000000 0.000000 0.222222
0.000000 0.000000 0.266667
0.000000 0.000000 0.311111
0.000000 0.000000 0.355556
0.000000 0.000000 0.400000
0.000000 0.088889 0.000000
0.000000 0.088889 0.044444
0.000000 0.088889 0.088889
0.000000 0.088889 0.133333
0.000000 0.088889 0.177778
0.000000 0.088889 0.222222
0.000000 0.088889 0.266667
0.000000 0.088889 0.311111
0.000000 0.088889 0.355556
0.000000 0.088889 0.400000
0.000000 0.177778 0.000000
0.000000 0.177778 0.044444
0.000000 0.177778 0.088889
0.000000 0.177778 0.133333
0.000000 0.177778 0.177778
0.000000 0.177778 0.222222
0.000000 0.177778 0.266667
0.000000 0.177778 0.311111
0.000000 0.177778 0.355556
0.000000 0.177778 0.400000
0.000000 0.266667 0.000000
0.000000 0.266667 0.044444
0.000000 0.266667 0.088889
0.000000 0.266667 0.133333
0.000000 0.266667 0.177778
0.000000 0.266667 0.222222
0.000000 0.266667 0.266667
0.000000 0.266667 0.311111
0.000000 0.266667 0.355556
0.000000 0.266667 0.400000
0.000000 0.355556 0.000000
0.000000 0.355556 0.044444
0.000000 0.355556 0.088889
0.000000 0.355556 0.133333
0.000000 0.355556 0.177778
0.000000 0.355556 0.222222
0.000000 0.355556 0.266667
0.000000 0.355556 0.311111
0.000000 0.355556 0.355556
0.000000 0.355556 0.400000
0.000000 0.444444 0.000000
0.000000 0.444444 0.044444
0.000000 0.444444 0.088889
0.000000 0.444444 0.133333
0.000000 0.444444 0.177778
0.000000 0.444444 0.222222
0.000000 0.444444 0.266667
0.000000 0.444444 0.311111
0.000000 0.444444 0.355556
0.000000 0.444444 0.400000
0.000000 0.533333 0.000000
0.000000 0.533333 0.044444
0.000000 0.533333 0.088889
0.000000 0.533333 0.133333
0.000000 0.533333 0.177778
0.000000 0.533333 0.222222
0.000000 0.533333 0.266667
0.000000 0.533333 0.311111
0.000000 0.533333 0.355556
0.000000 0.533333 0.400000
0.000000 0.622222 0.000000
0.000000 0.622222 0.044444
0.000000 0.622222 0.088889
0.000000 0.622222 0.133333
0.000000 0.622222 0.177778
0.000000 0.622222 0.222222
0.000000 0.622222 0.266667
0.000000 0.622222 0.311111
0.000000 0.622222 0.355556
0.000000 0.622222 0.400000
0.000000 0.711111 0.000000
0.000000 0.711111 0.044444
0.000000 0.711111 0.088889
0.000000 0.711111 0.133333
0.000000 0.711111 0.177778
0.000000 0.711111 0.222222
0.000000 0.711111 0.266667
0.000000 0.711111 0.311111
0.000000 0.711111 0.355556
0.000000 0.711111 0.400000
0.000000 0.800000 0.000000
0.000000 0.800000 0.044444
0.000000 0.800000 0.088889
0.000000 0.800000 0.133333
0.000000 0.800000 0.177778
0.000000 0.800000 0.222222
0.000000 0.800000 0.266667
0.000000 0.800000 0.311111
0.000000 0.800000 0.355556
0.000000 0.800000 0.400000
0.044444 0.000000 0.000000
0.044444 0.000000 0.044444
0.044444 0.000000 0.088889
0.044444 0.000000 0.133333
0.044444 0.000000 0.177778
0.044444 0.000000 0.222222
0.044444 0.000000 0.266667
0.044444 0.000000 0.311111
0.044444 0.000000 0.355556
0.044444 0.000000 0.400000
0.044444 0.088889 0.000000
0.044444 0.088889 0.044444
0.044444 0.088889 0.088889
0.044444 0.088889 0.133333
0.044444 0.088889 0.177778
0.044444 0.088889 0.222222
0.044444 0.088889 0.266667
0.044444 0.088889 0.311111
0.044444 0.088889 0.355556
0.044444 0.088889 0.400000
0.044444 0.177778 0.000000
0.044444 0.177778 0.044444
0.044444 0.177778 0.088889
0.044444 0.177778 0.133333
0.044444 0.177778 0.177778
0.044444 0.177778 0.222222
0.044444 0.177778 0.266667
0.044444 0.177778 0.311111
0.044444 0.177778 0.355556
0.044444 0.177778 0.400000
0.044444 0.266667 0.000000
0.044444 0.266667 0.044444
0.044444 0.266667 0.088889
0.044444 0.266667 0.133333
0.044444 0.266667 0.177778
0.044444 0.266667 0.222222
0.044444 0.266667 0.266667
0.044444 0.266667 0.311111
0.044444 0.266667 0.355556
0.044444 0.266667 0.400000
0.044444 0.355556 0.000000
0.044444 0.355556 0.044444
0.044444 0.355556 0.088889
0.044444 0.355556 0.133333
0.044444 0.355556 0.177778
0.044444 0.355556 0.222222
0.044444 0.355556 0.266667
0.044444 0.355556 0.311111
0.044444 0.355556 0.355556
0.044444 0.355556 0.400000
0.044444 0.444444 0.000000
0.044444 0.444444 0.044444
0.044444 0.444444 0.088889
0.044444 0.444444 0.133333
0.044444 0.444444 0.177778
0.044444 0.444444 0.222222
0.044444 0.444444 0.266667
0.044444 0.444444 0.311111
0.044444 0.444444 0.355556
0.044444 0.444444 0.400000
0.044444 0.533333 0.000000
0.044444 0.533333 0.044444
0.044444 0.533333 0.088889
0.044444 0.533333 0.133333
0.044444 0.533333 0.177778
0.044444 0.533333 0.222222
0.044444 0.533333 0.266667
0.044444 0.533333 0.311111
0.044444 0.533333 0.355556
0.044444 0.533333 0.400000
0.044444 0.622222 0.000000
0.044444 0.622222 0.044444
0.044444 0.622222 0.088889
0.044444 0.622222 0.133333
0.044444 0.622222 0.177778
0.044444 0.622222 0.222222
0.044444 0.622222 0.266667
0.044444 0.622222 0.311111
0.044444 0.622222 0.355556
0.044444 0.622222 0.400000
0.044444 0.711111 0.000000
0.044444 0.711111 0.044444
0.044444 0.711111 0.088889
0.044444 0.711111 0.133333
0.044444 0.711111 0.177778
0.044444 0.711111 0.222222
0.044444 0.711111 0.266667
0.044444 0.711111 0.311111
0.044444 0.711111 0.355556
0.044444 0.711111 0.400000
0.044444 0.800000 0.000000
0.044444 0.800000 0.044444
0.044444 0.800000 0.088889
0.044444 0.800000 0.133333
0.044444 0.800000 0.177778
0.044444 0.800000 0.222222
0.044444 0.800000 0.266667
0.044444 0.800000 0.311111
0.044444 0.800000 0.355556
0.044444 0.800000 0.400000
0.088889 0.000000 0.000000
0.088889 0.000000 0.044444
0.088889 0.000000 0.088889
0.088889 0.000000 0.133333
0.088889 0.000000 0.177778
0.088889 0.000000 0.222222
0.088889 0.000000 0.266667
0.088889 0.000000 0.311111
0.088889 0.000000 0.355556
0.088889 0.000000 0.400000
0.088889 0.088889 0.000000
0.088889 0.088889 0.044444
0.088889 0.088889 0.088889
0.088889 0.088889 0.133333
0.088889 0.088889 0.177778
0.088889 0.088889 0.222222
0.088889 0.088889 0.266667
0.088889 0.088889 0.311111
0.088889 0.088889 0.355556
0.088889 0.088889 0.400000
0.088889 0.177778 0.000000
0.088889 0.177778 0.044444
0.088889 0.177778 0.088889
0.088889 0.177778 0.133333
0.088889 0.177778 0.177778
0.088889 0.177778 0.222222
0.088889 0.177778 0.266667
0.088889 0.177778 0.311111
0.088889 0.177778 0.355556
0.088889 0.177778 0.400000
0.088889 0.266667 0.000000
0.088889 0.266667 0.044444
0.088889 0.266667 0.088889
0.088889 0.266667 0.133333
0.088889 0.266667 0.177778
0.088889 0.266667 0.222222
0.088889 0.266667 0.266667
0.088889 0.266667 0.311111
0.088889 0.266667 0.355556
0.088889 0.266667 0.400000
0.088889 0.355556 0.000000
0.088889 0.355556 0.044444
0.088889 0.355556 0.088889
0.088889 0.355556 0.133333
0.088889 0.355556 0.177778
0.088889 0.355556 0.222222
0.088889 0.355556 0.266667
0.088889 0.355556 0.311111
0.088889 0.355556 0.355556
0.088889 0.355556 0.400000
0.088889 0.444444 0.000000
0.088889 0.444444 0.044444
0.088889 0.444444 0.088889
0.088889 0.444444 0.133333
0.088889 0.444444 0.177778
0.088889 0.444444 0.222222
0.088889 0.444444 0.266667
0.088889 0.444444 0.311111
0.088889 0.444444 0.355556
0.088889 0.444444 0.400000
0.088889 0.533333 0.000000
0.088889 0.533333 0.044444
0.088889 0.533333 0.088889
0.088889 0.533333 0.133333
0.088889 0.533333 0.177778
0.088889 0.533333 0.222222
0.088889 0.533333 0.266667
0.088889 0.533333 0.311111
0.088889 0.533333 0.355556
0.088889 0.533333 0.400000
0.088889 0.622222 0.000000
0.088889 0.622222 0.044444
0.088889 0.622222 0.088889
0.088889 0.622222 0.133333
0.088889 0.622222 0.177778
0.088889 0.622222 0.222222
0.088889 0.622222 0.266667
0.088889 0.622222 0.311111
0.088889 0.622222 0.355556
0.088889 0.622222 0.400000
0.088889 0.711111 0.000000
0.088889 0.711111 0.044444
0.088889 0.711111 0.088889
0.088889 0.711111 0.133333
0.088889 0.711111 0.177778
0.088889 0.711111 0.222222
0.088889 0.711111 0.266667
0.088889 0.711111 0.311111
0.088889 0.711111 0.355556
0.088889 0.711111 0.400000
0.088889 0.800000 0.000000
0.088889 0.800000 0.044444
0.088889 0.800000 0.088889
0.088889 0.800000 0.133333
0.088889 0.800000 0.177778
0.088889 0.800000 0.222222
0.088889 0.800000 0.266667
0.088889 0.800000 0.311111
0.088889 0.800000 0.355556
0.088889 0.800000 0.400000
0.133333 0.000000 0.000000
0.133333 0.000000 0.044444
0.133333 0.000000 0.088889
0.133333 0.000000 0.133333
0.133333 0.000000 0.177778
0.133333 0.000000 0.222222
0.133333 0.000000 0.266667
0.133333 0.000000 0.311111
0.133333 0.000000 0.355556
0.133333 0.000000 0.400000
0.133333 0.088889 0.000000
0.133333 0.088889 0.044444
0.133333 0.088889 0.088889
0.133333 0.088889 0.133333
0.133333 0.088889 0.177778
0.133333 0.088889 0.222222
0.133333 0.088889 0.266667
0.133333 0.088889 0.311111
0.133333 0.088889 0.355556
0.133333 0.088889 0.400000
0.133333 0.177778 0.000000
0.133333 0.177778 0.044444
0.133333 0.177778 0.088889
0.133333 0.177778 0.133333
0.133333 0.177778 0.177778
0.133333 0.177778 0.222222
0.133333 0.177778 0.266667
0.133333 0.177778 0.311111
0.133333 0.177778 0.355556
0.133333 0.177778 0.400000
0.133333 0.266667 0.000000
0.133333 0.266667 0.044444
0.133333 0.266667 0.088889
0.133333 0.266667 0.133333
0.133333 0.266667 0.177778
0.133333 0.266667 0.222222
0.133333 0.266667 0.266667
0.133333 0.266667 0.311111
0.133333 0.266667 0.355556
0.133333 0.266667 0.400000
0.133333 0.355556 0.000000
0.133333 0.355556 0.044444
0.133333 0.355556 0.088889
0.133333 0.355556 0.133333
0.133333 0.355556 0.177778
0.133333 0.355556 0.222222
0.133333 0.355556 0.266667
0.133333 0.355556 0.311111
0.133333 0.355556 0.355556
0.133333 0.355556 0.400000
0.133333 0.444444 0.000000
0.133333 0.444444 0.044444
0.133333 0.444444 0.088889
0.133333 0.444444 0.133333
0.133333 0.444444 0.177778
0.133333 0.444444 0.222222
0.133333 0.444444 0.266667
0.133333 0.444444 0.311111
0.133333 0.444444 0.355556
0.133333 0.444444 0.400000
0.133333 0.533333 0.000000
0.133333 0.533333 0.044444
0.133333 0.533333 0.088889
0.133333 0.533333 0.133333
0.133333 0.533333 0.177778
0.133333 0.533333 0.222222
[...]
POINT_DATA 1000
SCALARS Temperature float 1
LOOKUP_TABLE default
160.418549
160.416229
160.413910
160.411713
160.409454
160.407196
160.405151
160.403046
160.401031
160.399048
160.417358
160.415070
160.412750
160.410492
160.408295
160.406189
160.404083
160.402039
160.399994
160.398010
160.416168
160.413910
160.411621
160.409363
160.407227
160.405090
160.402985
160.400970
160.399017
160.397003
160.414917
160.412628
160.410461
160.408203
160.406158
160.404022
160.401947
160.399872
160.397980
160.396088
160.413818
160.411560
160.409271
160.407135
160.405121
160.402954
160.400909
160.398956
160.396912
160.395111
160.412598
160.410431
160.408173
160.406097
160.403961
160.401947
160.399872
160.397980
160.395996
160.394104
160.411499
160.409241
160.407135
160.405060
160.402893
160.400909
160.398895
160.396881
160.395020
160.393188
160.410370
160.408112
160.406097
160.403900
160.401947
160.399872
160.397919
160.395935
160.394012
160.392181
160.409271
160.407043
160.405060
160.402893
160.400818
160.398834
160.396881
160.394989
160.393066
160.391266
160.408112
160.406036
160.403870
160.401825
160.399841
160.397858
160.395935
160.393951
160.392120
160.390289
160.419708
160.417267
160.414917
160.412567
160.410431
160.408173
160.406097
160.403961
160.401947
160.399872
160.418427
160.416046
160.413757
160.411499
160.409241
160.407074
160.405060
160.402893
160.400879
160.398895
160.417206
160.414948
160.412506
160.410370
160.408142
160.406097
160.403931
160.401947
160.399872
160.397919
160.415985
160.413666
160.411499
160.409271
160.407043
160.404999
160.402893
160.400787
160.398834
160.396881
160.414825
160.412445
160.410339
160.408081
160.406036
160.403900
160.401825
160.399811
160.397858
160.395905
160.413605
160.411469
160.409210
160.406952
160.404938
160.402832
160.400848
160.398712
160.396759
160.394989
160.412445
160.410278
160.408051
160.405975
160.403809
160.401764
160.399750
160.397797
160.395905
160.393951
160.411346
160.409149
160.406952
160.404877
160.402802
160.400726
160.398743
160.396759
160.394928
160.393036
160.410187
160.407990
160.405914
160.403748
160.401733
160.399750
160.397736
160.395813
160.393921
160.392059
160.409119
160.406952
160.404846
160.402679
160.400696
160.398651
160.396790
160.394867
160.392914
160.391113
160.420685
160.418335
160.415955
160.413666
160.411469
160.409210
160.407013
160.404938
160.402832
160.400818
160.419464
160.417053
160.414764
160.412445
160.410278
160.408051
160.405975
160.403778
160.401764
160.399750
160.418243
160.415924
160.413544
160.411316
160.409149
160.406952
160.404877
160.402740
160.400726
160.398743
160.417023
160.414734
160.412384
160.410217
160.407990
160.405914
160.403748
160.401764
160.399750
160.397736
160.415894
160.413544
160.411346
160.409088
160.406952
160.404846
160.402679
160.400665
160.398682
160.396759
160.414642
160.412354
160.410126
160.407990
160.405823
160.403717
160.401764
160.399689
160.397766
160.395782
160.413422
160.411224
160.409027
160.406891
160.404785
160.402710
160.400665
160.398651
160.396698
160.394775
160.412262
160.410095
160.407867
160.405792
160.403687
160.401672
160.399628
160.397644
160.395721
160.393768
160.411163
160.408966
160.406830
160.404755
160.402679
160.400604
160.398651
160.396698
160.394745
160.392883
160.410126
160.407867
160.405731
160.403625
160.401581
160.399567
160.397614
160.395660
160.393829
160.391937
160.421722
160.419312
160.416901
160.414673
160.412354
160.410126
160.407990
160.405823
160.403717
160.401764
160.420563
160.418060
160.415802
160.413452
160.411224
160.409058
160.406891
160.404785
160.402679
160.400635
160.419281
160.416870
160.414581
160.412292
160.410065
160.407867
160.405792
160.403717
160.401672
160.399628
160.418060
160.415710
160.413422
160.411163
160.409027
160.406830
160.404724
160.402679
160.400604
160.398621
160.416779
160.414520
160.412262
160.410126
160.407867
160.405762
160.403656
160.401581
160.399567
160.397614
160.415680
160.413361
160.411102
160.408966
160.406769
160.404694
160.402618
160.400574
160.398560
160.396637
160.414490
160.412201
160.410004
160.407776
160.405701
160.403534
160.401581
160.399536
160.397614
160.395660
160.413300
160.411041
160.408844
160.406738
160.404633
160.402557
160.400482
160.398468
160.396576
160.394684
160.412140
160.409882
160.407745
160.405640
160.403534
160.401520
160.399506
160.397552
160.395599
160.393707
160.411041
160.408813
160.406677
160.404572
160.402496
160.400421
160.398468
160.396484
160.394623
160.392761
160.422821
160.420380
160.417969
160.415680
160.413361
160.411102
160.408966
160.406738
160.404724
160.402557
160.421631
160.419159
160.416779
160.414459
160.412262
160.410004
160.407776
160.405670
160.403564
160.401581
160.420319
160.417969
160.415619
160.413300
160.411072
160.408844
160.406738
160.404633
160.402557
160.400482
160.419098
160.416718
160.414398
160.412140
160.409943
160.407745
160.405609
160.403534
160.401520
160.399506
160.417908
160.415619
160.413177
160.411041
160.408813
160.406677
160.404572
160.402496
160.400421
160.398529
160.416656
160.414337
160.412109
160.409943
160.407745
160.405640
160.403503
160.401459
160.399445
160.397491
160.415466
160.413208
160.410980
160.408722
160.406647
160.404602
160.402466
160.400421
160.398468
160.396484
160.414337
160.412018
160.409851
160.407684
160.405548
160.403412
160.401337
160.399414
160.397522
160.395477
160.413177
160.410950
160.408722
160.406586
160.404449
160.402374
160.400391
160.398407
160.396454
160.394531
160.411957
160.409821
160.407623
160.405487
160.403290
160.401276
160.399323
160.397430
160.395416
160.393585
160.423920
160.421478
160.419037
160.416656
160.414337
160.412140
160.409943
160.407715
160.405609
160.403534
160.422699
160.420227
160.417816
160.415497
160.413177
160.410950
160.408722
160.406677
160.404633
160.402466
160.421417
160.418976
160.416656
160.414337
160.412048
160.409821
160.407684
160.405548
160.403442
160.401337
160.420197
160.417755
160.415497
160.413177
160.410919
160.408722
160.406586
160.404510
160.402435
160.400391
160.418945
160.416595
160.414276
160.411957
160.409851
160.407623
160.405487
160.403320
160.401276
160.399323
160.417725
160.415436
160.413116
160.410919
160.408691
160.406525
160.404510
160.402313
160.400299
160.398346
160.416595
160.414276
160.411957
160.409790
160.407623
160.405487
160.403351
160.401215
160.399414
160.397369
160.415375
160.413055
160.410858
160.408661
160.406525
160.404388
160.402252
160.400299
160.398285
160.396332
160.414093
160.411896
160.409698
160.407562
160.405334
160.403290
160.401184
160.399292
160.397308
160.395416
160.412994
160.410797
160.408569
160.406403
160.404327
160.402252
160.400238
160.398193
160.396240
160.394440
160.425079
160.422577
160.420135
160.417694
160.415405
160.413116
160.410919
160.408691
160.406525
160.404449
160.423737
160.421326
160.418884
160.416595
160.414246
160.411957
160.409821
160.407623
160.405487
160.403320
160.422516
160.420044
160.417694
160.415344
160.413025
160.410889
160.408661
160.406525
160.404388
160.402252
160.421295
160.418854
160.416565
160.414124
160.411896
160.409729
160.407562
160.405365
160.403290
160.401215
160.420013
160.417694
160.415314
160.413025
160.410736
160.408600
160.406403
160.404358
160.402252
160.400177
160.418793
160.416473
160.414032
160.411835
160.409698
160.407471
160.405365
160.403290
160.401154
160.399261
160.417694
160.415253
160.412933
160.410736
160.408478
160.406403
160.404266
160.402191
160.400116
160.398224
160.416412
160.414001
160.411774
160.409637
160.407379
160.405273
160.403198
160.401123
160.399200
160.397217
160.415222
160.412994
160.410675
160.408447
160.406342
160.404236
160.402222
160.400146
160.398132
160.396179
160.414032
160.411774
160.409576
160.407349
160.405182
160.403137
160.401093
160.399139
160.397186
160.395233
160.426117
160.423615
160.421234
160.418793
160.416443
160.414032
160.411865
160.409698
160.407501
160.405365
160.424805
160.422333
160.419922
160.417694
160.415283
160.412933
160.410736
160.408539
160.406372
160.404266
160.423523
160.421173
160.418732
160.416412
160.413971
160.411774
160.409637
160.407379
160.405273
160.403229
160.422363
160.419891
160.417572
160.415192
160.412994
160.410645
160.408447
160.406342
160.404236
160.402222
160.421051
160.418610
160.416321
160.414032
160.411774
160.409515
160.407318
160.405212
160.403137
160.401123
160.419800
160.417511
160.415131
160.412872
160.410614
160.408417
160.406250
160.404144
160.402100
160.400116
160.418610
160.416321
160.413971
160.411713
160.409515
160.407257
160.405212
160.403107
160.401093
160.399139
160.417419
160.415070
160.412842
160.410614
160.408356
160.406219
160.404144
160.402069
160.400024
160.398041
160.416229
160.413910
160.411652
160.409454
160.407196
160.405151
160.403046
160.401031
160.399048
160.397034
160.415039
160.412750
160.410431
160.408295
160.406219
160.404083
160.402069
160.399994
160.398010
160.396057
160.427277
160.424713
160.422333
160.419830
160.417572
160.415131
160.412903
160.410614
160.408417
160.406311
160.425995
160.423431
160.421021
160.418579
160.416321
160.414032
160.411713
160.409515
160.407257
160.405243
160.424713
160.422211
160.419769
160.417480
160.415070
160.412811
160.410614
160.408356
160.406219
160.404144
160.423370
160.420959
160.418549
160.416260
160.413940
160.411682
160.409485
160.407196
160.405151
160.403046
160.422180
160.419678
160.417358
160.415070
160.412750
160.410431
160.408295
160.406189
160.404083
160.402069
160.420929
160.418549
160.416168
160.413879
160.411621
160.409393
160.407227
160.405090
160.402954
160.400970
160.419708
160.417328
160.414948
160.412628
160.410431
160.408203
160.406158
160.404022
160.401947
160.399872
160.418488
160.416046
160.413818
160.411591
160.409271
160.407135
160.405121
160.402954
160.400909
160.398956
160.417267
160.414917
160.412598
160.410431
160.408173
160.406097
160.403961
160.401947
160.399872
160.397980
160.416046
160.413727
160.411499
160.409271
160.407074
160.405060
160.402863
160.400848
160.398865
160.396881
160.428497
160.425903
160.423309
160.420929
160.418549
160.416168
160.413940
160.411621
160.409393
160.407227
160.427094
160.424561
160.422089
160.419708
160.417328
160.414948
160.412628
160.410492
160.408203
160.406097
160.425812
160.423187
160.420807
160.418518
160.416107
160.413788
160.411530
160.409302
160.407135
160.405090
160.424469
160.421997
160.419678
160.417267
160.414917
160.412598
160.410431
160.408173
160.406097
160.403961
160.423187
160.420837
160.418427
160.416046
160.413727
160.411469
160.409271
160.407074
160.405060
160.402893
160.421906
160.419586
160.417175
160.414948
160.412506
160.410370
160.408173
160.406097
160.403900
160.401947
160.420776
160.418335
160.415985
160.413666
160.411499
160.409271
160.407074
160.405029
160.402924
160.400787
160.419464
160.417206
160.414825
160.412445
160.410339
160.408081
160.406036
160.403900
160.401825
160.399811
160.418304
160.415955
160.413605
160.411469
160.409210
160.406952
160.404938
160.402802
160.400818
160.398712
160.417053
160.414764
160.412445
160.410278
160.408051
160.405975
160.403778
160.401764
160.399750
160.397797

SCALARS Alpha float 1
LOOKUP_TABLE default
-3.228538
-3.228448
-3.228358
-3.228270
-3.228184
-3.228100
-3.228016
-3.227935
-3.227857
-3.227777
-3.228492
-3.228403
-3.228313
-3.228225
-3.228142
-3.228058
-3.227973
-3.227895
-3.227817
-3.227739
-3.228446
-3.228357
-3.228268
-3.228181
-3.228097
-3.228014
-3.227934
-3.227854
-3.227775
-3.227700
-3.228401
-3.228310
-3.228223
-3.228140
-3.228056
-3.227973
-3.227893
-3.227815
-3.227738
-3.227664
-3.228355
-3.228265
-3.228180
-3.228095
-3.228012
-3.227930
-3.227852
-3.227773
-3.227698
-3.227623
-3.228308
-3.228220
-3.228138
-3.228052
-3.227971
-3.227891
-3.227812
-3.227735
-3.227662
-3.227587
-3.228264
-3.228178
-3.228094
-3.228009
-3.227929
-3.227850
-3.227772
-3.227696
-3.227622
-3.227548
-3.228220
-3.228135
-3.228051
-3.227970
-3.227889
-3.227811
-3.227734
-3.227658
-3.227585
-3.227512
-3.228176
-3.228091
-3.228007
-3.227927
-3.227849
-3.227771
-3.227694
-3.227620
-3.227547
-3.227477
-3.228133
-3.228049
-3.227967
-3.227886
-3.227808
-3.227734
-3.227656
-3.227583
-3.227510
-3.227438
-3.228581
-3.228487
-3.228398
-3.228308
-3.228221
-3.228138
-3.228052
-3.227970
-3.227891
-3.227812
-3.228533
-3.228441
-3.228352
-3.228264
-3.228178
-3.228094
-3.228010
-3.227929
-3.227850
-3.227772
-3.228487
-3.228397
-3.228307
-3.228221
-3.228136
-3.228052
-3.227969
-3.227889
-3.227811
-3.227734
-3.228440
-3.228349
-3.228261
-3.228177
-3.228092
-3.228007
-3.227927
-3.227848
-3.227771
-3.227695
-3.228395
-3.228306
-3.228218
-3.228134
-3.228049
-3.227967
-3.227887
-3.227809
-3.227733
-3.227655
-3.228348
-3.228259
-3.228174
-3.228089
-3.228005
-3.227927
-3.227849
-3.227767
-3.227692
-3.227619
-3.228302
-3.228216
-3.228131
-3.228048
-3.227965
-3.227886
-3.227808
-3.227731
-3.227655
-3.227582
-3.228258
-3.228172
-3.228088
-3.228004
-3.227925
-3.227845
-3.227766
-3.227692
-3.227617
-3.227544
-3.228214
-3.228128
-3.228046
-3.227962
-3.227883
-3.227806
-3.227728
-3.227653
-3.227579
-3.227509
-3.228170
-3.228086
-3.228001
-3.227922
-3.227844
-3.227764
-3.227690
-3.227615
-3.227542
-3.227471
-3.228622
-3.228528
-3.228439
-3.228348
-3.228259
-3.228175
-3.228090
-3.228007
-3.227928
-3.227849
-3.228573
-3.228481
-3.228392
-3.228303
-3.228216
-3.228131
-3.228047
-3.227964
-3.227886
-3.227808
-3.228526
-3.228435
-3.228345
-3.228257
-3.228172
-3.228087
-3.228004
-3.227925
-3.227845
-3.227766
-3.228480
-3.228388
-3.228301
-3.228214
-3.228130
-3.228046
-3.227962
-3.227883
-3.227805
-3.227729
-3.228436
-3.228343
-3.228255
-3.228170
-3.228086
-3.228002
-3.227922
-3.227844
-3.227765
-3.227689
-3.228386
-3.228299
-3.228212
-3.228127
-3.228045
-3.227962
-3.227880
-3.227802
-3.227726
-3.227654
-3.228342
-3.228254
-3.228168
-3.228084
-3.228001
-3.227920
-3.227841
-3.227764
-3.227687
-3.227614
-3.228297
-3.228209
-3.228126
-3.228044
-3.227959
-3.227880
-3.227802
-3.227725
-3.227651
-3.227576
-3.228253
-3.228165
-3.228081
-3.228000
-3.227920
-3.227839
-3.227762
-3.227686
-3.227612
-3.227539
-3.228207
-3.228123
-3.228041
-3.227958
-3.227879
-3.227801
-3.227723
-3.227648
-3.227574
-3.227502
-3.228664
-3.228570
-3.228477
-3.228387
-3.228299
-3.228212
-3.228127
-3.228045
-3.227962
-3.227880
-3.228615
-3.228522
-3.228432
-3.228342
-3.228254
-3.228168
-3.228084
-3.228001
-3.227920
-3.227841
-3.228568
-3.228476
-3.228384
-3.228297
-3.228209
-3.228125
-3.228043
-3.227960
-3.227880
-3.227802
-3.228520
-3.228430
-3.228341
-3.228253
-3.228166
-3.228081
-3.227998
-3.227919
-3.227840
-3.227762
-3.228472
-3.228383
-3.228294
-3.228208
-3.228122
-3.228041
-3.227958
-3.227878
-3.227801
-3.227722
-3.228427
-3.228339
-3.228251
-3.228164
-3.228078
-3.227999
-3.227917
-3.227839
-3.227761
-3.227684
-3.228381
-3.228292
-3.228205
-3.228121
-3.228039
-3.227955
-3.227877
-3.227800
-3.227721
-3.227646
-3.228335
-3.228249
-3.228162
-3.228079
-3.227997
-3.227915
-3.227835
-3.227760
-3.227683
-3.227608
-3.228288
-3.228204
-3.228120
-3.228036
-3.227954
-3.227875
-3.227796
-3.227719
-3.227645
-3.227571
-3.228247
-3.228160
-3.228076
-3.227994
-3.227913
-3.227834
-3.227757
-3.227682
-3.227606
-3.227533
-3.228706
-3.228610
-3.228518
-3.228426
-3.228339
-3.228250
-3.228164
-3.228079
-3.227998
-3.227918
-3.228657
-3.228564
-3.228470
-3.228380
-3.228292
-3.228206
-3.228121
-3.228039
-3.227955
-3.227876
-3.228608
-3.228516
-3.228426
-3.228336
-3.228249
-3.228162
-3.228078
-3.227996
-3.227916
-3.227836
-3.228560
-3.228468
-3.228379
-3.228289
-3.228204
-3.228120
-3.228036
-3.227952
-3.227874
-3.227797
-3.228512
-3.228423
-3.228333
-3.228247
-3.228160
-3.228076
-3.227994
-3.227913
-3.227835
-3.227757
-3.228466
-3.228378
-3.228287
-3.228203
-3.228117
-3.228034
-3.227951
-3.227872
-3.227795
-3.227717
-3.228420
-3.228332
-3.228243
-3.228158
-3.228074
-3.227992
-3.227910
-3.227833
-3.227754
-3.227680
-3.228375
-3.228285
-3.228200
-3.228116
-3.228032
-3.227950
-3.227871
-3.227792
-3.227716
-3.227641
-3.228329
-3.228242
-3.228156
-3.228071
-3.227990
-3.227910
-3.227832
-3.227753
-3.227677
-3.227605
-3.228282
-3.228198
-3.228113
-3.228031
-3.227948
-3.227868
-3.227791
-3.227715
-3.227639
-3.227566
-3.228747
-3.228653
-3.228560
-3.228467
-3.228379
-3.228287
-3.228203
-3.228117
-3.228034
-3.227951
-3.228700
-3.228604
-3.228511
-3.228422
-3.228332
-3.228244
-3.228158
-3.228074
-3.227992
-3.227911
-3.228651
-3.228558
-3.228465
-3.228375
-3.228285
-3.228201
-3.228116
-3.228032
-3.227950
-3.227870
-3.228603
-3.228508
-3.228419
-3.228330
-3.228242
-3.228156
-3.228072
-3.227990
-3.227910
-3.227831
-3.228555
-3.228462
-3.228373
-3.228283
-3.228197
-3.228114
-3.228031
-3.227948
-3.227868
-3.227791
-3.228506
-3.228416
-3.228328
-3.228239
-3.228154
-3.228070
-3.227988
-3.227908
-3.227829
-3.227752
-3.228459
-3.228372
-3.228281
-3.228197
-3.228111
-3.228028
-3.227945
-3.227868
-3.227789
-3.227712
-3.228415
-3.228325
-3.228236
-3.228153
-3.228068
-3.227987
-3.227906
-3.227827
-3.227750
-3.227673
-3.228368
-3.228280
-3.228194
-3.228111
-3.228027
-3.227945
-3.227866
-3.227785
-3.227710
-3.227636
-3.228324
-3.228234
-3.228151
-3.228066
-3.227984
-3.227904
-3.227826
-3.227748
-3.227672
-3.227598
-3.228790
-3.228693
-3.228601
-3.228506
-3.228417
-3.228328
-3.228239
-3.228155
-3.228070
-3.227988
-3.228741
-3.228645
-3.228553
-3.228459
-3.228371
-3.228282
-3.228197
-3.228111
-3.228029
-3.227946
-3.228692
-3.228596
-3.228504
-3.228416
-3.228326
-3.228237
-3.228153
-3.228068
-3.227987
-3.227906
-3.228643
-3.228550
-3.228457
-3.228367
-3.228280
-3.228194
-3.228111
-3.228027
-3.227943
-3.227866
-3.228595
-3.228504
-3.228412
-3.228324
-3.228234
-3.228151
-3.228066
-3.227984
-3.227904
-3.227827
-3.228548
-3.228456
-3.228368
-3.228278
-3.228192
-3.228108
-3.228024
-3.227943
-3.227864
-3.227785
-3.228501
-3.228410
-3.228323
-3.228234
-3.228148
-3.228063
-3.227983
-3.227902
-3.227822
-3.227746
-3.228454
-3.228363
-3.228276
-3.228189
-3.228105
-3.228023
-3.227941
-3.227862
-3.227783
-3.227706
-3.228408
-3.228320
-3.228232
-3.228146
-3.228063
-3.227980
-3.227901
-3.227822
-3.227745
-3.227669
-3.228363
-3.228274
-3.228189
-3.228103
-3.228021
-3.227939
-3.227859
-3.227780
-3.227705
-3.227630
-3.228835
-3.228737
-3.228641
-3.228548
-3.228456
-3.228368
-3.228279
-3.228193
-3.228108
-3.228024
-3.228784
-3.228688
-3.228594
-3.228502
-3.228409
-3.228323
-3.228234
-3.228149
-3.228062
-3.227983
-3.228735
-3.228640
-3.228545
-3.228454
-3.228364
-3.228275
-3.228189
-3.228105
-3.228024
-3.227941
-3.228685
-3.228592
-3.228499
-3.228408
-3.228320
-3.228233
-3.228147
-3.228063
-3.227981
-3.227901
-3.228637
-3.228543
-3.228452
-3.228362
-3.228273
-3.228190
-3.228103
-3.228020
-3.227940
-3.227861
-3.228590
-3.228496
-3.228407
-3.228316
-3.228228
-3.228146
-3.228061
-3.227978
-3.227898
-3.227819
-3.228541
-3.228449
-3.228362
-3.228271
-3.228187
-3.228102
-3.228018
-3.227937
-3.227859
-3.227779
-3.228494
-3.228403
-3.228314
-3.228228
-3.228144
-3.228060
-3.227976
-3.227896
-3.227818
-3.227740
-3.228448
-3.228358
-3.228270
-3.228184
-3.228099
-3.228016
-3.227935
-3.227856
-3.227777
-3.227702
-3.228402
-3.228314
-3.228224
-3.228141
-3.228057
-3.227973
-3.227894
-3.227816
-3.227738
-3.227664
-3.228878
-3.228778
-3.228684
-3.228590
-3.228495
-3.228407
-3.228317
-3.228229
-3.228146
-3.228061
-3.228828
-3.228730
-3.228636
-3.228542
-3.228451
-3.228361
-3.228272
-3.228187
-3.228102
-3.228019
-3.228777
-3.228681
-3.228587
-3.228493
-3.228404
-3.228314
-3.228227
-3.228144
-3.228060
-3.227976
-3.228728
-3.228635
-3.228538
-3.228449
-3.228358
-3.228270
-3.228184
-3.228100
-3.228016
-3.227935
-3.228679
-3.228584
-3.228491
-3.228403
-3.228313
-3.228225
-3.228142
-3.228058
-3.227973
-3.227894
-3.228633
-3.228537
-3.228446
-3.228357
-3.228268
-3.228182
-3.228097
-3.228013
-3.227933
-3.227854
-3.228582
-3.228491
-3.228401
-3.228310
-3.228223
-3.228140
-3.228055
-3.227973
-3.227893
-3.227814
-3.228535
-3.228443
-3.228356
-3.228266
-3.228180
-3.228095
-3.228012
-3.227930
-3.227852
-3.227773
-3.228487
-3.228398
-3.228308
-3.228221
-3.228138
-3.228053
-3.227971
-3.227891
-3.227813