# vtk DataFile Version 3.0
PINN prediction t=2979.310302734375
ASCII
DATASET UNSTRUCTURED_GRID
POINTS 1000 float
0.000000 0.000000 0.000000
0.000000 0.000000 0.044444
0.000000 0.000000 0.088889
0.000000 0.000000 0.133333
0.000000 0.000000 0.177778
0.000000 0.000000 0.222222
0.000000 0.000000 0.266667
0.000000 0.000000 0.311111
0.000000 0.000000 0.355556
0.000000 0.000000 0.400000
0.000000 0.088889 0.000000
0.000000 0.088889 0.044444
0.000000 0.088889 0.088889
0.000000 0.088889 0.133333
0.000000 0.088889 0.177778
0.000000 0.088889 0.222222
0.000000 0.088889 0.266667
0.000000 0.088889 0.311111
0.000000 0.088889 0.355556
0.000000 0.088889 0.400000
0.000000 0.177778 0.000000
0.000000 0.177778 0.044444
0.000000 0.177778 0.088889
0.000000 0.177778 0.133333
0.000000 0.177778 0.177778
0.000000 0.177778 0.222222
0.000000 0.177778 0.266667
0.000000 0.177778 0.311111
0.000000 0.177778 0.355556
0.000000 0.177778 0.400000
0.000000 0.266667 0.000000
0.000000 0.266667 0.044444
0.000000 0.266667 0.088889
0.000000 0.266667 0.133333
0.000000 0.266667 0.177778
0.000000 0.266667 0.222222
0.000000 0.266667 0.266667
0.000000 0.266667 0.311111
0.000000 0.266667 0.355556
0.000000 0.266667 0.400000
0.000000 0.355556 0.000000
0.000000 0.355556 0.044444
0.000000 0.355556 0.088889
0.000000 0.355556 0.133333
0.000000 0.355556 0.177778
0.000000 0.355556 0.222222
0.000000 0.355556 0.266667
0.000000 0.355556 0.311111
0.000000 0.355556 0.355556
0.000000 0.355556 0.400000
0.000000 0.444444 0.000000
0.000000 0.444444 0.044444
0.000000 0.444444 0.088889
0.000000 0.444444 0.133333
0.000000 0.444444 0.177778
0.000000 0.444444 0.222222
0.000000 0.444444 0.266667
0.000000 0.444444 0.311111
0.000000 0.444444 0.355556
0.000000 0.444444 0.400000
0.000000 0.533333 0.000000
0.000000 0.533333 0.044444
0.000000 0.533333 0.088889
0.000000 0.533333 0.133333
0.000000 0.533333 0.177778
0.000000 0.533333 0.222222
0.000000 0.533333 0.266667
0.000000 0.533333 0.311111
0.000000 0.533333 0.355556
0.000000 0.533333 0.400000
0.000000 0.622222 0.000000
0.000000 0.622222 0.044444
0.000000 0.622222 0.088889
0.000000 0.622222 0.133333
0.000000 0.622222 0.177778
0.000000 0.622222 0.222222
0.000000 0.622222 0.266667
0.000000 0.622222 0.311111
0.000000 0.622222 0.355556
0.000000 0.622222 0.400000
0.000000 0.711111 0.000000
0.000000 0.711111 0.044444
0.000000 0.711111 0.088889
0.000000 0.711111 0.133333
0.000000 0.711111 0.177778
0.000000 0.711111 0.222222
0.000000 0.711111 0.266667
0.000000 0.711111 0.311111
0.000000 0.711111 0.355556
0.000000 0.711111 0.400000
0.000000 0.800000 0.000000
0.000000 0.800000 0.044444
0.000000 0.800000 0.088889
0.000000 0.800000 0.133333
0.000000 0.800000 0.177778
0.000000 0.800000 0.222222
0.000000 0.800000 0.266667
0.000000 0.800000 0.311111
0.000000 0.800000 0.355556
0.000000 0.800000 0.400000
0.044444 0.000000 0.000000
0.044444 0.000000 0.044444
0.044444 0.000000 0.088889
0.044444 0.000000 0.133333
0.044444 0.000000 0.177778
0.044444 0.000000 0.222222
0.044444 0.000000 0.266667
0.044444 0.000000 0.311111
0.044444 0.000000 0.355556
0.044444 0.000000 0.400000
0.044444 0.088889 0.000000
0.044444 0.088889 0.044444
0.044444 0.088889 0.088889
0.044444 0.088889 0.133333
0.044444 0.088889 0.177778
0.044444 0.088889 0.222222
0.044444 0.088889 0.266667
0.044444 0.088889 0.311111
0.044444 0.088889 0.355556
0.044444 0.088889 0.400000
0.044444 0.177778 0.000000
0.044444 0.177778 0.044444
0.044444 0.177778 0.088889
0.044444 0.177778 0.133333
0.044444 0.177778 0.177778
0.044444 0.177778 0.222222
0.044444 0.177778 0.266667
0.044444 0.177778 0.311111
0.044444 0.177778 0.355556
0.044444 0.177778 0.400000
0.044444 0.266667 0.000000
0.044444 0.266667 0.044444
0.044444 0.266667 0.088889
0.044444 0.266667 0.133333
0.044444 0.266667 0.177778
0.044444 0.266667 0.222222
0.044444 0.266667 0.266667
0.044444 0.266667 0.311111
0.044444 0.266667 0.355556
0.044444 0.266667 0.400000
0.044444 0.355556 0.000000
0.044444 0.355556 0.044444
0.044444 0.355556 0.088889
0.044444 0.355556 0.133333
0.044444 0.355556 0.177778
0.044444 0.355556 0.222222
0.044444 0.355556 0.266667
0.044444 0.355556 0.311111
0.044444 0.355556 0.355556
0.044444 0.355556 0.400000
0.044444 0.444444 0.000000
0.044444 0.444444 0.044444
0.044444 0.444444 0.088889
0.044444 0.444444 0.133333
0.044444 0.444444 0.177778
0.044444 0.444444 0.222222
0.044444 0.444444 0.266667
0.044444 0.444444 0.311111
0.044444 0.444444 0.355556
0.044444 0.444444 0.400000
0.044444 0.533333 0.000000
0.044444 0.533333 0.044444
0.044444 0.533333 0.088889
0.044444 0.533333 0.133333
0.044444 0.533333 0.177778
0.044444 0.533333 0.222222
0.044444 0.533333 0.266667
0.044444 0.533333 0.311111
0.044444 0.533333 0.355556
0.044444 0.533333 0.400000
0.044444 0.622222 0.000000
0.044444 0.622222 0.044444
0.044444 0.622222 0.088889
0.044444 0.622222 0.133333
0.044444 0.622222 0.177778
0.044444 0.622222 0.222222
0.044444 0.622222 0.266667
0.044444 0.622222 0.311111
0.044444 0.622222 0.355556
0.044444 0.622222 0.400000
0.044444 0.711111 0.000000
0.044444 0.711111 0.044444
0.044444 0.711111 0.088889
0.044444 0.711111 0.133333
0.044444 0.711111 0.177778
0.044444 0.711111 0.222222
0.044444 0.711111 0.266667
0.044444 0.711111 0.311111
0.044444 0.711111 0.355556
0.044444 0.711111 0.400000
0.044444 0.800000 0.000000
0.044444 0.800000 0.044444
0.044444 0.800000 0.088889
0.044444 0.800000 0.133333
0.044444 0.800000 0.177778
0.044444 0.800000 0.222222
0.044444 0.800000 0.266667
0.044444 0.800000 0.311111
0.044444 0.800000 0.355556
0.044444 0.800000 0.400000
0.088889 0.000000 0.000000
0.088889 0.000000 0.044444
0.088889 0.000000 0.088889
0.088889 0.000000 0.133333
0.088889 0.000000 0.177778
0.088889 0.000000 0.222222
0.088889 0.000000 0.266667
0.088889 0.000000 0.311111
0.088889 0.000000 0.355556
0.088889 0.000000 0.400000
0.088889 0.088889 0.000000
0.088889 0.088889 0.044444
0.088889 0.088889 0.088889
0.088889 0.088889 0.133333
0.088889 0.088889 0.177778
0.088889 0.088889 0.222222
0.088889 0.088889 0.266667
0.088889 0.088889 0.311111
0.088889 0.088889 0.355556
0.088889 0.088889 0.400000
0.088889 0.177778 0.000000
0.088889 0.177778 0.044444
0.088889 0.177778 0.088889
0.088889 0.177778 0.133333
0.088889 0.177778 0.177778
0.088889 0.177778 0.222222
0.088889 0.177778 0.266667
0.088889 0.177778 0.311111
0.088889 0.177778 0.355556
0.088889 0.177778 0.400000
0.088889 0.266667 0.000000
0.088889 0.266667 0.044444
0.088889 0.266667 0.088889
0.088889 0.266667 0.133333
0.088889 0.266667 0.177778
0.088889 0.266667 0.222222
0.088889 0.266667 0.266667
0.088889 0.266667 0.311111
0.088889 0.266667 0.355556
0.088889 0.266667 0.400000
0.088889 0.355556 0.000000
0.088889 0.355556 0.044444
0.088889 0.355556 0.088889
0.088889 0.355556 0.133333
0.088889 0.355556 0.177778
0.088889 0.355556 0.222222
0.088889 0.355556 0.266667
0.088889 0.355556 0.311111
0.088889 0.355556 0.355556
0.088889 0.355556 0.400000
0.088889 0.444444 0.000000
0.088889 0.444444 0.044444
0.088889 0.444444 0.088889
0.088889 0.444444 0.133333
0.088889 0.444444 0.177778
0.088889 0.444444 0.222222
0.088889 0.444444 0.266667
0.088889 0.444444 0.311111
0.088889 0.444444 0.355556
0.088889 0.444444 0.400000
0.088889 0.533333 0.000000
0.088889 0.533333 0.044444
0.088889 0.533333 0.088889
0.088889 0.533333 0.133333
0.088889 0.533333 0.177778
0.088889 0.533333 0.222222
0.088889 0.533333 0.266667
0.088889 0.533333 0.311111
0.088889 0.533333 0.355556
0.088889 0.533333 0.400000
0.088889 0.622222 0.000000
0.088889 0.622222 0.044444
0.088889 0.622222 0.088889
0.088889 0.622222 0.133333
0.088889 0.622222 0.177778
0.088889 0.622222 0.222222
0.088889 0.622222 0.266667
0.088889 0.622222 0.311111
0.088889 0.622222 0.355556
0.088889 0.622222 0.400000
0.088889 0.711111 0.000000
0.088889 0.711111 0.044444
0.088889 0.711111 0.088889
0.088889 0.711111 0.133333
0.088889 0.711111 0.177778
0.088889 0.711111 0.222222
0.088889 0.711111 0.266667
0.088889 0.711111 0.311111
0.088889 0.711111 0.355556
0.088889 0.711111 0.400000
0.088889 0.800000 0.000000
0.088889 0.800000 0.044444
0.088889 0.800000 0.088889
0.088889 0.800000 0.133333
0.088889 0.800000 0.177778
0.088889 0.800000 0.222222
0.088889 0.800000 0.266667
0.088889 0.800000 0.311111
0.088889 0.800000 0.355556
0.088889 0.800000 0.400000
0.133333 0.000000 0.000000
0.133333 0.000000 0.044444
0.133333 0.000000 0.088889
0.133333 0.000000 0.133333
0.133333 0.000000 0.177778
0.133333 0.000000 0.222222
0.133333 0.000000 0.266667
0.133333 0.000000 0.311111
0.133333 0.000000 0.355556
0.133333 0.000000 0.400000
0.133333 0.088889 0.000000
0.133333 0.088889 0.044444
0.133333 0.088889 0.088889
0.133333 0.088889 0.133333
0.133333 0.088889 0.177778
0.133333 0.088889 0.222222
0.133333 0.088889 0.266667
0.133333 0.088889 0.311111
0.133333 0.088889 0.355556
0.133333 0.088889 0.400000
0.133333 0.177778 0.000000
0.133333 0.177778 0.044444
0.133333 0.177778 0.088889
0.133333 0.177778 0.133333
0.133333 0.177778 0.177778
0.133333 0.177778 0.222222
0.133333 0.177778 0.266667
0.133333 0.177778 0.311111
0.133333 0.177778 0.355556
0.133333 0.177778 0.400000
0.133333 0.266667 0.000000
0.133333 0.266667 0.044444
0.133333 0.266667 0.088889
0.133333 0.266667 0.133333
0.133333 0.266667 0.177778
0.133333 0.266667 0.222222
0.133333 0.266667 0.266667
0.133333 0.266667 0.311111
0.133333 0.266667 0.355556
0.133333 0.266667 0.400000
0.133333 0.355556 0.000000
0.133333 0.355556 0.044444
0.133333 0.355556 0.088889
0.133333 0.355556 0.133333
0.133333 0.355556 0.177778
0.133333 0.355556 0.222222
0.133333 0.355556 0.266667
0.133333 0.355556 0.311111
0.133333 0.355556 0.355556
0.133333 0.355556 0.400000
0.133333 0.444444 0.000000
0.133333 0.444444 0.044444
0.133333 0.444444 0.088889
0.133333 0.444444 0.133333
0.133333 0.444444 0.177778
0.133333 0.444444 0.222222
0.133333 0.444444 0.266667
0.133333 0.444444 0.311111
0.133333 0.444444 0.355556
0.133333 0.444444 0.400000
0.133333 0.533333 0.000000
0.133333 0.533333 0.044444
0.133333 0.533333 0.088889
0.133333 0.533333 0.133333
0.133333 0.533333 0.177778
0.133333 0.533333 0.222222
[...]
POINT_DATA 1000
SCALARS Temperature float 1
LOOKUP_TABLE default
163.791534
163.733978
163.677338
163.621429
163.566254
163.511902
163.458405
163.405548
163.353607
163.302277
163.763702
163.706635
163.650238
163.594696
163.540009
163.486115
163.432922
163.380524
163.328857
163.278015
163.736053
163.679413
163.623505
163.568329
163.514069
163.460480
163.407654
163.355682
163.304413
163.254028
163.708771
163.652435
163.596863
163.542175
163.488251
163.435028
163.382721
163.331177
163.280304
163.230164
163.681580
163.625702
163.570587
163.516266
163.462738
163.409973
163.357941
163.306793
163.256195
163.206573
163.654663
163.599182
163.544586
163.490570
163.437408
163.385040
163.333466
163.282623
163.232574
163.183197
163.628021
163.572845
163.518616
163.464996
163.412354
163.360413
163.309174
163.258698
163.208954
163.160065
163.601593
163.546875
163.492889
163.439819
163.387543
163.335846
163.285095
163.235016
163.185760
163.137054
163.575287
163.521027
163.467499
163.414795
163.362854
163.311615
163.261169
163.211517
163.162628
163.114349
163.549347
163.495392
163.442352
163.390045
163.338348
163.287628
163.237518
163.188202
163.139679
163.091888
163.817291
163.759247
163.702301
163.645966
163.590546
163.535828
163.481964
163.428802
163.376434
163.324921
163.789215
163.731720
163.675079
163.619232
163.564117
163.509827
163.456299
163.403595
163.351593
163.300446
163.761383
163.704376
163.648163
163.592682
163.537994
163.484100
163.430969
163.378662
163.327026
163.276215
163.733917
163.677185
163.621368
163.566284
163.511993
163.458527
163.405792
163.353851
163.302643
163.252228
163.706543
163.650299
163.594849
163.540253
163.486298
163.433258
163.380890
163.329376
163.278564
163.228424
163.679474
163.623627
163.568604
163.514313
163.460846
163.408112
163.356201
163.304962
163.254578
163.204926
163.652618
163.597198
163.542511
163.488617
163.435547
163.383240
163.331696
163.280914
163.230927
163.181610
163.626007
163.570953
163.516693
163.463226
163.410553
163.358612
163.307465
163.257111
163.207458
163.158539
163.599640
163.544952
163.491119
163.437988
163.385712
163.334198
163.283417
163.233368
163.184113
163.135590
163.573364
163.519257
163.465759
163.412994
163.361176
163.310028
163.259583
163.210022
163.161102
163.112946
163.843109
163.784912
163.727448
163.670776
163.615021
163.559967
163.505585
163.452209
163.399567
163.347565
163.814911
163.757141
163.700104
163.643829
163.588409
163.533783
163.479889
163.426849
163.374542
163.323090
163.786957
163.729462
163.672943
163.617126
163.562042
163.507751
163.454407
163.401672
163.349762
163.298615
163.759247
163.702240
163.646027
163.590515
163.535950
163.482147
163.428986
163.376740
163.325256
163.274445
163.731689
163.675079
163.619232
163.564301
163.510040
163.456635
163.403931
163.352081
163.300964
163.250549
163.704468
163.648224
163.592804
163.538177
163.484375
163.431305
163.379059
163.327576
163.276764
163.226776
163.677399
163.621582
163.566620
163.512390
163.458954
163.406250
163.354431
163.303345
163.252930
163.203308
163.650543
163.595184
163.540619
163.486847
163.433746
163.381439
163.329926
163.279297
163.229279
163.180023
163.623993
163.569061
163.514862
163.461456
163.408752
163.356903
163.305817
163.255463
163.205841
163.157013
163.597687
163.543091
163.489288
163.436279
163.384003
163.332550
163.281799
163.231873
163.182709
163.134125
163.869171
163.810547
163.752716
163.695679
163.639587
163.584137
163.529602
163.475800
163.422729
163.370483
163.840668
163.782562
163.725189
163.668579
163.612885
163.557831
163.503632
163.450256
163.397614
163.345673
163.812592
163.754852
163.697876
163.641693
163.586273
163.531738
163.477905
163.424927
163.372620
163.321198
163.784698
163.727325
163.670776
163.615021
163.559967
163.505829
163.452393
163.399750
163.347931
163.296844
163.757019
163.700043
163.643890
163.588531
163.533966
163.480194
163.427155
163.374908
163.323425
163.272736
163.729553
163.673004
163.617218
163.562286
163.508087
163.454681
163.402069
163.350250
163.299225
163.248810
163.702332
163.646210
163.590881
163.536285
163.482483
163.429474
163.377289
163.325836
163.275116
163.225250
163.675293
163.619690
163.564667
163.510529
163.457153
163.404449
163.352722
163.301605
163.251312
163.201813
163.648560
163.593292
163.538696
163.485016
163.431976
163.379791
163.328339
163.277710
163.227692
163.178497
163.622040
163.567139
163.512970
163.459595
163.407074
163.355194
163.304230
163.253876
163.204376
163.155487
163.895355
163.836395
163.778229
163.720917
163.664398
163.608612
163.553680
163.499481
163.446075
163.393463
163.866852
163.808228
163.750458
163.693512
163.637482
163.582062
163.527557
163.473785
163.420776
163.368500
163.838440
163.780334
163.722931
163.666382
163.610687
163.555725
163.501617
163.448242
163.395660
163.343811
163.810272
163.752594
163.695648
163.639526
163.584198
163.529694
163.475983
163.422943
163.370758
163.319366
163.782562
163.725098
163.668671
163.612946
163.557953
163.503906
163.450470
163.397919
163.346130
163.295074
163.754791
163.697845
163.641815
163.586548
163.531952
163.478210
163.425293
163.373138
163.321716
163.270966
163.727448
163.670959
163.615265
163.560272
163.506195
163.452850
163.400330
163.348572
163.297516
163.247253
163.700165
163.644226
163.588928
163.534424
163.480621
163.427704
163.375549
163.324127
163.273468
163.223602
163.673370
163.617706
163.562775
163.508636
163.455383
163.402710
163.350922
163.300018
163.249664
163.200165
163.646637
163.591339
163.536865
163.483124
163.430145
163.378082
163.326691
163.276031
163.226135
163.177032
163.921722
163.862366
163.803802
163.746124
163.689301
163.633148
163.577911
163.523285
163.469574
163.416656
163.892853
163.833954
163.775940
163.718658
163.662140
163.606476
163.551544
163.497406
163.444183
163.391571
163.864471
163.805939
163.748260
163.691376
163.635284
163.579926
163.525482
163.471710
163.418854
163.366669
163.836151
163.778046
163.720673
163.664215
163.608582
163.553711
163.499695
163.446320
163.393829
163.342010
163.808014
163.750336
163.693573
163.637482
163.582245
163.527740
163.474030
163.421112
163.368927
163.317627
163.780182
163.722961
163.666473
163.610870
163.556061
163.501953
163.448578
163.396149
163.344330
163.293304
163.752655
163.695831
163.639740
163.584503
163.529999
163.476318
163.423492
163.371368
163.320038
163.269318
163.725250
163.668854
163.613251
163.558380
163.504364
163.451080
163.398560
163.346832
163.295776
163.245514
163.698212
163.642181
163.586884
163.532501
163.478790
163.425903
163.373871
163.322449
163.271881
163.222046
163.671356
163.615692
163.560883
163.506805
163.453583
163.401093
163.349365
163.298370
163.248138
163.198700
163.948242
163.888519
163.829620
163.771637
163.714264
163.657928
163.602264
163.547394
163.493256
163.439972
163.919281
163.860016
163.801483
163.743866
163.687042
163.630951
163.575714
163.521332
163.467560
163.414734
163.890533
163.831696
163.773651
163.716431
163.659943
163.604340
163.549469
163.495453
163.442230
163.389618
163.862030
163.803558
163.746002
163.689240
163.633148
163.577911
163.523468
163.469818
163.416962
163.364868
163.833771
163.775848
163.718597
163.662140
163.606598
163.551727
163.497681
163.444489
163.391937
163.340240
163.805817
163.748169
163.691406
163.635437
163.580231
163.525787
163.472076
163.419281
163.367188
163.315826
163.778046
163.720886
163.664459
163.608795
163.554047
163.500000
163.446747
163.394318
163.342590
163.291656
163.750519
163.693817
163.637756
163.582550
163.528168
163.474518
163.421631
163.369568
163.318207
163.267700
163.723236
163.666870
163.611359
163.556458
163.502472
163.449219
163.396820
163.345184
163.294189
163.243958
163.696167
163.640259
163.584991
163.530609
163.477020
163.424164
163.372162
163.320770
163.270294
163.220520
163.974792
163.914795
163.855469
163.797150
163.739594
163.682709
163.626740
163.571564
163.517059
163.463531
163.945709
163.886078
163.827301
163.769348
163.712067
163.655670
163.600067
163.545319
163.491241
163.438019
163.916840
163.857635
163.799164
163.741638
163.684906
163.628876
163.573700
163.519257
163.465607
163.412781
163.888153
163.829346
163.771301
163.714142
163.657806
163.602234
163.547455
163.493500
163.440216
163.387817
163.859802
163.801361
163.743744
163.686981
163.631012
163.575897
163.521454
163.467926
163.415100
163.362946
163.831512
163.773529
163.716431
163.660156
163.604523
163.549774
163.495758
163.442474
163.390228
163.338501
163.803680
163.746063
163.689331
163.633331
163.578217
163.523773
163.470245
163.417389
163.365387
163.314117
163.775909
163.718781
163.662384
163.606873
163.552094
163.498138
163.444946
163.392517
163.340851
163.290009
163.748444
163.691681
163.635773
163.580597
163.526276
163.472687
163.419861
163.367889
163.316559
163.266083
163.721252
163.664886
163.609406
163.554657
163.500732
163.447540
163.395111
163.343475
163.292633
163.242371
164.001740
163.941284
163.881683
163.822937
163.765045
163.707764
163.651459
163.595856
163.541107
163.487152
163.972321
163.912384
163.853241
163.794800
163.737335
163.680511
163.624542
163.569489
163.515015
163.461517
163.943268
163.883698
163.824921
163.766998
163.709869
163.653534
163.597992
163.543243
163.489227
163.436035
163.914398
163.855316
163.796936
163.739349
163.682770
163.626740
163.571625
163.517242
163.463654
163.410919
163.885773
163.827057
163.769073
163.712067
163.655762
163.600189
163.545441
163.491516
163.438324
163.385895
163.857483
163.799103
163.741638
163.684906
163.628998
163.573822
163.519531
163.465973
163.413208
163.361145
163.829315
163.771423
163.714264
163.657990
163.602478
163.547760
163.493866
163.440643
163.388336
163.336700
163.801422
163.743988
163.687286
163.631317
163.576202
163.521973
163.468475
163.415619
163.363617
163.312439
163.773834
163.716705
163.660370
163.604889
163.550323
163.496307
163.443207
163.390839
163.339203
163.288330
163.746399
163.689728
163.633820
163.578674
163.524445
163.470978
163.418182
163.366241
163.314972
163.264435
164.028656
163.967804
163.907990
163.848816
163.790497
163.733002
163.676270
163.620300
163.565216
163.510956
163.999146
163.938751
163.879242
163.820618
163.762604
163.705536
163.649231
163.593719
163.539032
163.485077
163.969879
163.910004
163.850861
163.792572
163.735016
163.678314
163.622406
163.567291
163.513031
163.459473
163.940826
163.881348
163.822662
163.764771
163.707733
163.651398
163.595917
163.541229
163.487274
163.434235
163.912109
163.852936
163.794678
163.737213
163.680634
163.624695
163.569611
163.515350
163.461823
163.409088
163.883545
163.824860
163.766937
163.709930
163.653595
163.598114
163.543457
163.489594
163.436462
163.384186
163.855225
163.796997
163.739471
163.682892
163.626984
163.571899
163.517609
163.464081
163.411377
163.359467
163.827087
163.769318
163.712280
163.656036
163.600616
163.545868
163.491974
163.438934
163.386566
163.334991
163.799286
163.741882
163.685211
163.629425
163.574341
163.520050
163.466522
163.413818
163.361877
163.310760
163.771698
163.714752
163.658386
163.603058
163.548370
163.494537
163.441376
163.389069
163.337555
163.286713

SCALARS Alpha float 1
LOOKUP_TABLE default
-3.359390
-3.357066
-3.354782
-3.352530
-3.350309
-3.348125
-3.345969
-3.343849
-3.341760
-3.339703
-3.358223
-3.355921
-3.353651
-3.351415
-3.349212
-3.347044
-3.344908
-3.342802
-3.340729
-3.338690
-3.357067
-3.354782
-3.352528
-3.350311
-3.348125
-3.345973
-3.343851
-3.341764
-3.339708
-3.337685
-3.355919
-3.353651
-3.351417
-3.349214
-3.347047
-3.344911
-3.342808
-3.340735
-3.338696
-3.336686
-3.354783
-3.352532
-3.350313
-3.348130
-3.345976
-3.343857
-3.341772
-3.339716
-3.337692
-3.335698
-3.353655
-3.351421
-3.349218
-3.347054
-3.344916
-3.342813
-3.340742
-3.338703
-3.336697
-3.334720
-3.352535
-3.350319
-3.348134
-3.345983
-3.343864
-3.341779
-3.339723
-3.337700
-3.335708
-3.333746
-3.351427
-3.349225
-3.347056
-3.344925
-3.342820
-3.340751
-3.338714
-3.336705
-3.334730
-3.332786
-3.350324
-3.348141
-3.345991
-3.343872
-3.341787
-3.339736
-3.337712
-3.335721
-3.333760
-3.331832
-3.349231
-3.347066
-3.344933
-3.342830
-3.340763
-3.338724
-3.336719
-3.334743
-3.332798
-3.330884
-3.360426
-3.358089
-3.355788
-3.353521
-3.351288
-3.349087
-3.346918
-3.344783
-3.342682
-3.340608
-3.359254
-3.356934
-3.354650
-3.352400
-3.350181
-3.347998
-3.345846
-3.343729
-3.341641
-3.339588
-3.358090
-3.355788
-3.353520
-3.351286
-3.349087
-3.346919
-3.344786
-3.342684
-3.340614
-3.338576
-3.356936
-3.354650
-3.352400
-3.350184
-3.348003
-3.345851
-3.343733
-3.341648
-3.339593
-3.337572
-3.355788
-3.353523
-3.351291
-3.349093
-3.346923
-3.344793
-3.342690
-3.340620
-3.338582
-3.336579
-3.354652
-3.352405
-3.350190
-3.348007
-3.345855
-3.343740
-3.341654
-3.339601
-3.337579
-3.335590
-3.353526
-3.351295
-3.349096
-3.346930
-3.344798
-3.342697
-3.340628
-3.338591
-3.336584
-3.334612
-3.352408
-3.350194
-3.348013
-3.345865
-3.343747
-3.341663
-3.339609
-3.337591
-3.335600
-3.333641
-3.351301
-3.349102
-3.346938
-3.344805
-3.342705
-3.340637
-3.338601
-3.336597
-3.334623
-3.332679
-3.350200
-3.348020
-3.345872
-3.343757
-3.341671
-3.339622
-3.337600
-3.335614
-3.333655
-3.331727
-3.361469
-3.359119
-3.356802
-3.354519
-3.352270
-3.350056
-3.347871
-3.345722
-3.343606
-3.341521
-3.360289
-3.357953
-3.355656
-3.353389
-3.351158
-3.348958
-3.346795
-3.344661
-3.342560
-3.340493
-3.359118
-3.356802
-3.354519
-3.352272
-3.350056
-3.347875
-3.345725
-3.343608
-3.341527
-3.339473
-3.357954
-3.355656
-3.353393
-3.351161
-3.348964
-3.346797
-3.344665
-3.342567
-3.340500
-3.338462
-3.356801
-3.354521
-3.352273
-3.350058
-3.347878
-3.345730
-3.343615
-3.341531
-3.339480
-3.337461
-3.355659
-3.353394
-3.351163
-3.348968
-3.346803
-3.344671
-3.342572
-3.340505
-3.338470
-3.336466
-3.354525
-3.352278
-3.350063
-3.347883
-3.345737
-3.343621
-3.341539
-3.339486
-3.337468
-3.335480
-3.353400
-3.351170
-3.348972
-3.346809
-3.344678
-3.342580
-3.340514
-3.338479
-3.336476
-3.334504
-3.352283
-3.350071
-3.347890
-3.345742
-3.343628
-3.341547
-3.339498
-3.337479
-3.335493
-3.333535
-3.351175
-3.348981
-3.346819
-3.344687
-3.342589
-3.340526
-3.338491
-3.336486
-3.334516
-3.332575
-3.362519
-3.360153
-3.357822
-3.355524
-3.353258
-3.351030
-3.348833
-3.346669
-3.344537
-3.342439
-3.361330
-3.358983
-3.356667
-3.354389
-3.352139
-3.349928
-3.347748
-3.345600
-3.343485
-3.341403
-3.360152
-3.357821
-3.355523
-3.353261
-3.351031
-3.348835
-3.346670
-3.344542
-3.342442
-3.340377
-3.358983
-3.356667
-3.354387
-3.352143
-3.349931
-3.347752
-3.345604
-3.343489
-3.341409
-3.339359
-3.357820
-3.355526
-3.353261
-3.351034
-3.348838
-3.346676
-3.344547
-3.342448
-3.340384
-3.338349
-3.356669
-3.354390
-3.352144
-3.349935
-3.347753
-3.345610
-3.343495
-3.341415
-3.339366
-3.337348
-3.355526
-3.353266
-3.351038
-3.348844
-3.346681
-3.344551
-3.342457
-3.340390
-3.338358
-3.336355
-3.354395
-3.352151
-3.349939
-3.347761
-3.345617
-3.343505
-3.341424
-3.339376
-3.337358
-3.335373
-3.353271
-3.351044
-3.348851
-3.346688
-3.344562
-3.342464
-3.340401
-3.338367
-3.336367
-3.334397
-3.352156
-3.349946
-3.347768
-3.345624
-3.343513
-3.341435
-3.339388
-3.337368
-3.335384
-3.333431
-3.363577
-3.361195
-3.358848
-3.356536
-3.354256
-3.352011
-3.349800
-3.347621
-3.345476
-3.343362
-3.362381
-3.360016
-3.357685
-3.355391
-3.353132
-3.350902
-3.348707
-3.346545
-3.344415
-3.342320
-3.361194
-3.358848
-3.356535
-3.354257
-3.352013
-3.349804
-3.347623
-3.345479
-3.343367
-3.341288
-3.360016
-3.357688
-3.355392
-3.353131
-3.350904
-3.348711
-3.346549
-3.344421
-3.342324
-3.340262
-3.358847
-3.356536
-3.354259
-3.352016
-3.349804
-3.347628
-3.345485
-3.343372
-3.341293
-3.339244
-3.357687
-3.355394
-3.353135
-3.350908
-3.348714
-3.346554
-3.344426
-3.342331
-3.340268
-3.338238
-3.356539
-3.354263
-3.352020
-3.349810
-3.347634
-3.345489
-3.343379
-3.341301
-3.339252
-3.337237
-3.355397
-3.353137
-3.350913
-3.348721
-3.346562
-3.344434
-3.342340
-3.340278
-3.338247
-3.336246
-3.354266
-3.352023
-3.349816
-3.347641
-3.345496
-3.343387
-3.341309
-3.339265
-3.337247
-3.335265
-3.353145
-3.350920
-3.348729
-3.346570
-3.344444
-3.342350
-3.340288
-3.338256
-3.336260
-3.334289
-3.364639
-3.362244
-3.359882
-3.357554
-3.355260
-3.353000
-3.350773
-3.348580
-3.346421
-3.344292
-3.363436
-3.361057
-3.358713
-3.356401
-3.354125
-3.351882
-3.349673
-3.347497
-3.345355
-3.343241
-3.362241
-3.359880
-3.357553
-3.355260
-3.353001
-3.350775
-3.348581
-3.346424
-3.344297
-3.342202
-3.361056
-3.358712
-3.356403
-3.354127
-3.351886
-3.349676
-3.347502
-3.345357
-3.343247
-3.341169
-3.359879
-3.357553
-3.355262
-3.353004
-3.350779
-3.348586
-3.346427
-3.344301
-3.342209
-3.340146
-3.358713
-3.356405
-3.354130
-3.351887
-3.349680
-3.347506
-3.345364
-3.343254
-3.341178
-3.339130
-3.357556
-3.355264
-3.353007
-3.350783
-3.348592
-3.346434
-3.344306
-3.342214
-3.340153
-3.338125
-3.356406
-3.354135
-3.351892
-3.349687
-3.347512
-3.345370
-3.343263
-3.341185
-3.339140
-3.337126
-3.355268
-3.353012
-3.350788
-3.348599
-3.346441
-3.344317
-3.342225
-3.340162
-3.338134
-3.336137
-3.354140
-3.351900
-3.349693
-3.347520
-3.345379
-3.343272
-3.341195
-3.339152
-3.337138
-3.335155
-3.365711
-3.363300
-3.360922
-3.358579
-3.356269
-3.353995
-3.351755
-3.349546
-3.347372
-3.345229
-3.364499
-3.362105
-3.359745
-3.357421
-3.355131
-3.352870
-3.350644
-3.348457
-3.346298
-3.344173
-3.363295
-3.360919
-3.358578
-3.356269
-3.353994
-3.351755
-3.349549
-3.347374
-3.345233
-3.343124
-3.362103
-3.359745
-3.357420
-3.355130
-3.352871
-3.350649
-3.348459
-3.346302
-3.344178
-3.342082
-3.360919
-3.358577
-3.356271
-3.353997
-3.351758
-3.349553
-3.347379
-3.345238
-3.343129
-3.341054
-3.359746
-3.357418
-3.355131
-3.352874
-3.350653
-3.348463
-3.346306
-3.344183
-3.342091
-3.340030
-3.358580
-3.356273
-3.354001
-3.351763
-3.349556
-3.347383
-3.345241
-3.343135
-3.341061
-3.339019
-3.357424
-3.355135
-3.352880
-3.350659
-3.348470
-3.346314
-3.344191
-3.342099
-3.340041
-3.338011
-3.356278
-3.354005
-3.351768
-3.349562
-3.347389
-3.345252
-3.343147
-3.341070
-3.339026
-3.337016
-3.355139
-3.352886
-3.350667
-3.348477
-3.346320
-3.344197
-3.342108
-3.340052
-3.338024
-3.336029
-3.366788
-3.364360
-3.361969
-3.359612
-3.357287
-3.354996
-3.352740
-3.350518
-3.348329
-3.346173
-3.365569
-3.363158
-3.360783
-3.358444
-3.356137
-3.353863
-3.351625
-3.349421
-3.347248
-3.345107
-3.364357
-3.361966
-3.359608
-3.357286
-3.354997
-3.352742
-3.350520
-3.348333
-3.346175
-3.344052
-3.363156
-3.360784
-3.358443
-3.356138
-3.353867
-3.351628
-3.349424
-3.347251
-3.345113
-3.343005
-3.361964
-3.359608
-3.357285
-3.354998
-3.352743
-3.350522
-3.348335
-3.346181
-3.344058
-3.341968
-3.360783
-3.358445
-3.356140
-3.353868
-3.351630
-3.349427
-3.347256
-3.345118
-3.343011
-3.340938
-3.359610
-3.357289
-3.355001
-3.352747
-3.350527
-3.348339
-3.346187
-3.344065
-3.341974
-3.339917
-3.358446
-3.356143
-3.353871
-3.351636
-3.349433
-3.347263
-3.345124
-3.343020
-3.340947
-3.338906
-3.357292
-3.355005
-3.352752
-3.350533
-3.348346
-3.346194
-3.344073
-3.341984
-3.339925
-3.337902
-3.356147
-3.353878
-3.351644
-3.349440
-3.347271
-3.345135
-3.343029
-3.340956
-3.338916
-3.336908
-3.367874
-3.365430
-3.363022
-3.360648
-3.358309
-3.356006
-3.353735
-3.351496
-3.349293
-3.347123
-3.366646
-3.364220
-3.361829
-3.359473
-3.357152
-3.354864
-3.352611
-3.350392
-3.348204
-3.346051
-3.365427
-3.363020
-3.360646
-3.358309
-3.356005
-3.353734
-3.351498
-3.349296
-3.347123
-3.344986
-3.364216
-3.361829
-3.359473
-3.357152
-3.354868
-3.352613
-3.350394
-3.348207
-3.346055
-3.343932
-3.363017
-3.360645
-3.358309
-3.356005
-3.353736
-3.351501
-3.349298
-3.347128
-3.344990
-3.342889
-3.361828
-3.359474
-3.357153
-3.354867
-3.352615
-3.350398
-3.348212
-3.346060
-3.343939
-3.341850
-3.360646
-3.358311
-3.356008
-3.353740
-3.351505
-3.349303
-3.347133
-3.344997
-3.342895
-3.340823
-3.359475
-3.357158
-3.354873
-3.352620
-3.350403
-3.348218
-3.346066
-3.343947
-3.341858
-3.339803
-3.358317
-3.356013
-3.353746
-3.351511
-3.349310
-3.347143
-3.345007
-3.342904
-3.340833