# vtk DataFile Version 3.0
PINN prediction t=11917.2412109375
ASCII
DATASET UNSTRUCTURED_GRID
POINTS 1000 float
0.000000 0.000000 0.000000
0.000000 0.000000 0.044444
0.000000 0.000000 0.088889
0.000000 0.000000 0.133333
0.000000 0.000000 0.177778
0.000000 0.000000 0.222222
0.000000 0.000000 0.266667
0.000000 0.000000 0.311111
0.000000 0.000000 0.355556
0.000000 0.000000 0.400000
0.000000 0.088889 0.000000
0.000000 0.088889 0.044444
0.000000 0.088889 0.088889
0.000000 0.088889 0.133333
0.000000 0.088889 0.177778
0.000000 0.088889 0.222222
0.000000 0.088889 0.266667
0.000000 0.088889 0.311111
0.000000 0.088889 0.355556
0.000000 0.088889 0.400000
0.000000 0.177778 0.000000
0.000000 0.177778 0.044444
0.000000 0.177778 0.088889
0.000000 0.177778 0.133333
0.000000 0.177778 0.177778
0.000000 0.177778 0.222222
0.000000 0.177778 0.266667
0.000000 0.177778 0.311111
0.000000 0.177778 0.355556
0.000000 0.177778 0.400000
0.000000 0.266667 0.000000
0.000000 0.266667 0.044444
0.000000 0.266667 0.088889
0.000000 0.266667 0.133333
0.000000 0.266667 0.177778
0.000000 0.266667 0.222222
0.000000 0.266667 0.266667
0.000000 0.266667 0.311111
0.000000 0.266667 0.355556
0.000000 0.266667 0.400000
0.000000 0.355556 0.000000
0.000000 0.355556 0.044444
0.000000 0.355556 0.088889
0.000000 0.355556 0.133333
0.000000 0.355556 0.177778
0.000000 0.355556 0.222222
0.000000 0.355556 0.266667
0.000000 0.355556 0.311111
0.000000 0.355556 0.355556
0.000000 0.355556 0.400000
0.000000 0.444444 0.000000
0.000000 0.444444 0.044444
0.000000 0.444444 0.088889
0.000000 0.444444 0.133333
0.000000 0.444444 0.177778
0.000000 0.444444 0.222222
0.000000 0.444444 0.266667
0.000000 0.444444 0.311111
0.000000 0.444444 0.355556
0.000000 0.444444 0.400000
0.000000 0.533333 0.000000
0.000000 0.533333 0.044444
0.000000 0.533333 0.088889
0.000000 0.533333 0.133333
0.000000 0.533333 0.177778
0.000000 0.533333 0.222222
0.000000 0.533333 0.266667
0.000000 0.533333 0.311111
0.000000 0.533333 0.355556
0.000000 0.533333 0.400000
0.000000 0.622222 0.000000
0.000000 0.622222 0.044444
0.000000 0.622222 0.088889
0.000000 0.622222 0.133333
0.000000 0.622222 0.177778
0.000000 0.622222 0.222222
0.000000 0.622222 0.266667
0.000000 0.622222 0.311111
0.000000 0.622222 0.355556
0.000000 0.622222 0.400000
0.000000 0.711111 0.000000
0.000000 0.711111 0.044444
0.000000 0.711111 0.088889
0.000000 0.711111 0.133333
0.000000 0.711111 0.177778
0.000000 0.711111 0.222222
0.000000 0.711111 0.266667
0.000000 0.711111 0.311111
0.000000 0.711111 0.355556
0.000000 0.711111 0.400000
0.000000 0.800000 0.000000
0.000000 0.800000 0.044444
0.000000 0.800000 0.088889
0.000000 0.800000 0.133333
0.000000 0.800000 0.177778
0.000000 0.800000 0.222222
0.000000 0.800000 0.266667
0.000000 0.800000 0.311111
0.000000 0.800000 0.355556
0.000000 0.800000 0.400000
0.044444 0.000000 0.000000
0.044444 0.000000 0.044444
0.044444 0.000000 0.088889
0.044444 0.000000 0.133333
0.044444 0.000000 0.177778
0.044444 0.000000 0.222222
0.044444 0.000000 0.266667
0.044444 0.000000 0.311111
0.044444 0.000000 0.355556
0.044444 0.000000 0.400000
0.044444 0.088889 0.000000
0.044444 0.088889 0.044444
0.044444 0.088889 0.088889
0.044444 0.088889 0.133333
0.044444 0.088889 0.177778
0.044444 0.088889 0.222222
0.044444 0.088889 0.266667
0.044444 0.088889 0.311111
0.044444 0.088889 0.355556
0.044444 0.088889 0.400000
0.044444 0.177778 0.000000
0.044444 0.177778 0.044444
0.044444 0.177778 0.088889
0.044444 0.177778 0.133333
0.044444 0.177778 0.177778
0.044444 0.177778 0.222222
0.044444 0.177778 0.266667
0.044444 0.177778 0.311111
0.044444 0.177778 0.355556
0.044444 0.177778 0.400000
0.044444 0.266667 0.000000
0.044444 0.266667 0.044444
0.044444 0.266667 0.088889
0.044444 0.266667 0.133333
0.044444 0.266667 0.177778
0.044444 0.266667 0.222222
0.044444 0.266667 0.266667
0.044444 0.266667 0.311111
0.044444 0.266667 0.355556
0.044444 0.266667 0.400000
0.044444 0.355556 0.000000
0.044444 0.355556 0.044444
0.044444 0.355556 0.088889
0.044444 0.355556 0.133333
0.044444 0.355556 0.177778
0.044444 0.355556 0.222222
0.044444 0.355556 0.266667
0.044444 0.355556 0.311111
0.044444 0.355556 0.355556
0.044444 0.355556 0.400000
0.044444 0.444444 0.000000
0.044444 0.444444 0.044444
0.044444 0.444444 0.088889
0.044444 0.444444 0.133333
0.044444 0.444444 0.177778
0.044444 0.444444 0.222222
0.044444 0.444444 0.266667
0.044444 0.444444 0.311111
0.044444 0.444444 0.355556
0.044444 0.444444 0.400000
0.044444 0.533333 0.000000
0.044444 0.533333 0.044444
0.044444 0.533333 0.088889
0.044444 0.533333 0.133333
0.044444 0.533333 0.177778
0.044444 0.533333 0.222222
0.044444 0.533333 0.266667
0.044444 0.533333 0.311111
0.044444 0.533333 0.355556
0.044444 0.533333 0.400000
0.044444 0.622222 0.000000
0.044444 0.622222 0.044444
0.044444 0.622222 0.088889
0.044444 0.622222 0.133333
0.044444 0.622222 0.177778
0.044444 0.622222 0.222222
0.044444 0.622222 0.266667
0.044444 0.622222 0.311111
0.044444 0.622222 0.355556
0.044444 0.622222 0.400000
0.044444 0.711111 0.000000
0.044444 0.711111 0.044444
0.044444 0.711111 0.088889
0.044444 0.711111 0.133333
0.044444 0.711111 0.177778
0.044444 0.711111 0.222222
0.044444 0.711111 0.266667
0.044444 0.711111 0.311111
0.044444 0.711111 0.355556
0.044444 0.711111 0.400000
0.044444 0.800000 0.000000
0.044444 0.800000 0.044444
0.044444 0.800000 0.088889
0.044444 0.800000 0.133333
0.044444 0.800000 0.177778
0.044444 0.800000 0.222222
0.044444 0.800000 0.266667
0.044444 0.800000 0.311111
0.044444 0.800000 0.355556
0.044444 0.800000 0.400000
0.088889 0.000000 0.000000
0.088889 0.000000 0.044444
0.088889 0.000000 0.088889
0.088889 0.000000 0.133333
0.088889 0.000000 0.177778
0.088889 0.000000 0.222222
0.088889 0.000000 0.266667
0.088889 0.000000 0.311111
0.088889 0.000000 0.355556
0.088889 0.000000 0.400000
0.088889 0.088889 0.000000
0.088889 0.088889 0.044444
0.088889 0.088889 0.088889
0.088889 0.088889 0.133333
0.088889 0.088889 0.177778
0.088889 0.088889 0.222222
0.088889 0.088889 0.266667
0.088889 0.088889 0.311111
0.088889 0.088889 0.355556
0.088889 0.088889 0.400000
0.088889 0.177778 0.000000
0.088889 0.177778 0.044444
0.088889 0.177778 0.088889
0.088889 0.177778 0.133333
0.088889 0.177778 0.177778
0.088889 0.177778 0.222222
0.088889 0.177778 0.266667
0.088889 0.177778 0.311111
0.088889 0.177778 0.355556
0.088889 0.177778 0.400000
0.088889 0.266667 0.000000
0.088889 0.266667 0.044444
0.088889 0.266667 0.088889
0.088889 0.266667 0.133333
0.088889 0.266667 0.177778
0.088889 0.266667 0.222222
0.088889 0.266667 0.266667
0.088889 0.266667 0.311111
0.088889 0.266667 0.355556
0.088889 0.266667 0.400000
0.088889 0.355556 0.000000
0.088889 0.355556 0.044444
0.088889 0.355556 0.088889
0.088889 0.355556 0.133333
0.088889 0.355556 0.177778
0.088889 0.355556 0.222222
0.088889 0.355556 0.266667
0.088889 0.355556 0.311111
0.088889 0.355556 0.355556
0.088889 0.355556 0.400000
0.088889 0.444444 0.000000
0.088889 0.444444 0.044444
0.088889 0.444444 0.088889
0.088889 0.444444 0.133333
0.088889 0.444444 0.177778
0.088889 0.444444 0.222222
0.088889 0.444444 0.266667
0.088889 0.444444 0.311111
0.088889 0.444444 0.355556
0.088889 0.444444 0.400000
0.088889 0.533333 0.000000
0.088889 0.533333 0.044444
0.088889 0.533333 0.088889
0.088889 0.533333 0.133333
0.088889 0.533333 0.177778
0.088889 0.533333 0.222222
0.088889 0.533333 0.266667
0.088889 0.533333 0.311111
0.088889 0.533333 0.355556
0.088889 0.533333 0.400000
0.088889 0.622222 0.000000
0.088889 0.622222 0.044444
0.088889 0.622222 0.088889
0.088889 0.622222 0.133333
0.088889 0.622222 0.177778
0.088889 0.622222 0.222222
0.088889 0.622222 0.266667
0.088889 0.622222 0.311111
0.088889 0.622222 0.355556
0.088889 0.622222 0.400000
0.088889 0.711111 0.000000
0.088889 0.711111 0.044444
0.088889 0.711111 0.088889
0.088889 0.711111 0.133333
0.088889 0.711111 0.177778
0.088889 0.711111 0.222222
0.088889 0.711111 0.266667
0.088889 0.711111 0.311111
0.088889 0.711111 0.355556
0.088889 0.711111 0.400000
0.088889 0.800000 0.000000
0.088889 0.800000 0.044444
0.088889 0.800000 0.088889
0.088889 0.800000 0.133333
0.088889 0.800000 0.177778
0.088889 0.800000 0.222222
0.088889 0.800000 0.266667
0.088889 0.800000 0.311111
0.088889 0.800000 0.355556
0.088889 0.800000 0.400000
0.133333 0.000000 0.000000
0.133333 0.000000 0.044444
0.133333 0.000000 0.088889
0.133333 0.000000 0.133333
0.133333 0.000000 0.177778
0.133333 0.000000 0.222222
0.133333 0.000000 0.266667
0.133333 0.000000 0.311111
0.133333 0.000000 0.355556
0.133333 0.000000 0.400000
0.133333 0.088889 0.000000
0.133333 0.088889 0.044444
0.133333 0.088889 0.088889
0.133333 0.088889 0.133333
0.133333 0.088889 0.177778
0.133333 0.088889 0.222222
0.133333 0.088889 0.266667
0.133333 0.088889 0.311111
0.133333 0.088889 0.355556
0.133333 0.088889 0.400000
0.133333 0.177778 0.000000
0.133333 0.177778 0.044444
0.133333 0.177778 0.088889
0.133333 0.177778 0.133333
0.133333 0.177778 0.177778
0.133333 0.177778 0.222222
0.133333 0.177778 0.266667
0.133333 0.177778 0.311111
0.133333 0.177778 0.355556
0.133333 0.177778 0.400000
0.133333 0.266667 0.000000
0.133333 0.266667 0.044444
0.133333 0.266667 0.088889
0.133333 0.266667 0.133333
0.133333 0.266667 0.177778
0.133333 0.266667 0.222222
0.133333 0.266667 0.266667
0.133333 0.266667 0.311111
0.133333 0.266667 0.355556
0.133333 0.266667 0.400000
0.133333 0.355556 0.000000
0.133333 0.355556 0.044444
0.133333 0.355556 0.088889
0.133333 0.355556 0.133333
0.133333 0.355556 0.177778
0.133333 0.355556 0.222222
0.133333 0.355556 0.266667
0.133333 0.355556 0.311111
0.133333 0.355556 0.355556
0.133333 0.355556 0.400000
0.133333 0.444444 0.000000
0.133333 0.444444 0.044444
0.133333 0.444444 0.088889
0.133333 0.444444 0.133333
0.133333 0.444444 0.177778
0.133333 0.444444 0.222222
0.133333 0.444444 0.266667
0.133333 0.444444 0.311111
0.133333 0.444444 0.355556
0.133333 0.444444 0.400000
0.133333 0.533333 0.000000
0.133333 0.533333 0.044444
0.133333 0.533333 0.088889
0.133333 0.533333 0.133333
0.133333 0.533333 0.177778
0.133333 0.533333 0.222222
[...]
POINT_DATA 1000
SCALARS Temperature float 1
LOOKUP_TABLE default
160.321564
160.321136
160.320709
160.320343
160.319916
160.319611
160.319244
160.318817
160.318542
160.318176
160.321320
160.320892
160.320526
160.320160
160.319794
160.319458
160.319061
160.318695
160.318390
160.318024
160.321075
160.320709
160.320343
160.319977
160.319611
160.319244
160.318848
160.318542
160.318176
160.317841
160.320892
160.320526
160.320099
160.319733
160.319427
160.319061
160.318634
160.318390
160.317993
160.317657
160.320648
160.320343
160.319916
160.319550
160.319214
160.318787
160.318573
160.318207
160.317841
160.317413
160.320526
160.320160
160.319702
160.319427
160.319061
160.318634
160.318329
160.317963
160.317657
160.317291
160.320343
160.319946
160.319550
160.319183
160.318787
160.318512
160.318176
160.317841
160.317444
160.317169
160.320160
160.319733
160.319427
160.319061
160.318573
160.318329
160.317963
160.317596
160.317291
160.316925
160.319916
160.319550
160.319183
160.318787
160.318512
160.318176
160.317780
160.317413
160.317169
160.316742
160.319733
160.319427
160.319000
160.318634
160.318390
160.317963
160.317596
160.317291
160.316895
160.316650
160.321777
160.321289
160.320862
160.320526
160.320160
160.319733
160.319427
160.319061
160.318634
160.318329
160.321472
160.321136
160.320679
160.320343
160.319946
160.319550
160.319183
160.318787
160.318512
160.318176
160.321320
160.320892
160.320496
160.320160
160.319733
160.319427
160.319061
160.318573
160.318390
160.317963
160.321136
160.320709
160.320282
160.319916
160.319550
160.319183
160.318787
160.318512
160.318207
160.317810
160.320831
160.320526
160.320160
160.319763
160.319427
160.319000
160.318634
160.318359
160.317963
160.317596
160.320679
160.320282
160.319885
160.319611
160.319214
160.318787
160.318481
160.318146
160.317780
160.317352
160.320526
160.320099
160.319733
160.319427
160.319000
160.318634
160.318329
160.318024
160.317596
160.317291
160.320221
160.319855
160.319550
160.319183
160.318756
160.318512
160.318146
160.317780
160.317352
160.317139
160.320129
160.319733
160.319397
160.319000
160.318573
160.318329
160.317963
160.317596
160.317291
160.316925
160.319885
160.319550
160.319153
160.318787
160.318512
160.318146
160.317749
160.317413
160.317139
160.316772
160.321930
160.321442
160.321106
160.320679
160.320282
160.319885
160.319611
160.319183
160.318787
160.318481
160.321716
160.321259
160.320862
160.320526
160.320160
160.319733
160.319427
160.319000
160.318634
160.318329
160.321442
160.321075
160.320679
160.320251
160.319855
160.319550
160.319183
160.318756
160.318512
160.318146
160.321289
160.320801
160.320526
160.320160
160.319733
160.319427
160.319000
160.318573
160.318329
160.317963
160.321075
160.320648
160.320282
160.319885
160.319550
160.319153
160.318787
160.318512
160.318146
160.317780
160.320801
160.320526
160.320160
160.319733
160.319366
160.319000
160.318634
160.318298
160.317963
160.317596
160.320648
160.320282
160.319885
160.319550
160.319153
160.318787
160.318481
160.318146
160.317719
160.317352
160.320526
160.320099
160.319733
160.319366
160.319000
160.318634
160.318298
160.317963
160.317566
160.317261
160.320282
160.319916
160.319519
160.319122
160.318726
160.318451
160.318085
160.317749
160.317352
160.317139
160.320099
160.319702
160.319366
160.319000
160.318604
160.318268
160.317963
160.317566
160.317261
160.316895
160.322113
160.321686
160.321259
160.320801
160.320526
160.320160
160.319733
160.319366
160.319000
160.318634
160.321869
160.321381
160.321045
160.320648
160.320282
160.319855
160.319550
160.319183
160.318756
160.318512
160.321686
160.321228
160.320740
160.320526
160.320099
160.319733
160.319397
160.319000
160.318634
160.318298
160.321381
160.320953
160.320648
160.320282
160.319855
160.319519
160.319122
160.318726
160.318451
160.318085
160.321198
160.320801
160.320557
160.320099
160.319702
160.319366
160.319000
160.318634
160.318298
160.317963
160.320953
160.320648
160.320282
160.319916
160.319550
160.319122
160.318756
160.318451
160.318085
160.317719
160.320770
160.320465
160.320068
160.319733
160.319366
160.318970
160.318634
160.318268
160.317932
160.317566
160.320648
160.320282
160.319855
160.319611
160.319183
160.318756
160.318451
160.318115
160.317719
160.317383
160.320465
160.320068
160.319672
160.319336
160.318939
160.318634
160.318268
160.317902
160.317535
160.317230
160.320251
160.319855
160.319550
160.319122
160.318726
160.318451
160.318054
160.317719
160.317352
160.317108
160.322296
160.321869
160.321442
160.320953
160.320648
160.320282
160.319885
160.319550
160.319122
160.318726
160.322113
160.321594
160.321198
160.320770
160.320465
160.320068
160.319733
160.319366
160.318970
160.318634
160.321869
160.321442
160.321014
160.320648
160.320282
160.319855
160.319550
160.319122
160.318756
160.318451
160.321625
160.321198
160.320801
160.320465
160.320038
160.319672
160.319336
160.318939
160.318634
160.318268
160.321442
160.320953
160.320648
160.320251
160.319855
160.319550
160.319122
160.318695
160.318451
160.318054
160.321198
160.320801
160.320404
160.320038
160.319672
160.319336
160.318939
160.318634
160.318268
160.317902
160.320984
160.320618
160.320251
160.319855
160.319550
160.319122
160.318756
160.318420
160.318024
160.317719
160.320770
160.320404
160.320038
160.319672
160.319275
160.318939
160.318634
160.318207
160.317902
160.317474
160.320648
160.320251
160.319794
160.319580
160.319061
160.318726
160.318420
160.318024
160.317719
160.317413
160.320404
160.320038
160.319672
160.319275
160.318939
160.318573
160.318207
160.317902
160.317535
160.317261
160.322449
160.322083
160.321625
160.321198
160.320801
160.320404
160.320038
160.319672
160.319336
160.318939
160.322266
160.321869
160.321442
160.320984
160.320648
160.320282
160.319824
160.319550
160.319122
160.318756
160.322052
160.321625
160.321198
160.320770
160.320404
160.320038
160.319672
160.319275
160.318939
160.318573
160.321869
160.321442
160.320953
160.320648
160.320221
160.319824
160.319550
160.319061
160.318756
160.318390
160.321594
160.321198
160.320801
160.320404
160.320038
160.319672
160.319275
160.318939
160.318604
160.318237
160.321442
160.320984
160.320648
160.320221
160.319855
160.319550
160.319061
160.318726
160.318390
160.318085
160.321198
160.320801
160.320404
160.320038
160.319672
160.319275
160.318939
160.318634
160.318268
160.317871
160.320923
160.320587
160.320221
160.319824
160.319489
160.319092
160.318695
160.318451
160.318024
160.317719
160.320770
160.320404
160.319977
160.319641
160.319244
160.318939
160.318573
160.318237
160.317841
160.317444
160.320648
160.320221
160.319855
160.319519
160.319061
160.318726
160.318390
160.318024
160.317719
160.317352
160.322601
160.322235
160.321869
160.321442
160.320984
160.320648
160.320221
160.319855
160.319550
160.319061
160.322418
160.322021
160.321564
160.321167
160.320801
160.320404
160.320007
160.319672
160.319275
160.318939
160.322235
160.321838
160.321381
160.320923
160.320587
160.320221
160.319824
160.319519
160.319092
160.318695
160.322052
160.321564
160.321167
160.320770
160.320404
160.319977
160.319641
160.319275
160.318939
160.318573
160.321838
160.321381
160.320892
160.320648
160.320221
160.319855
160.319550
160.319061
160.318695
160.318451
160.321564
160.321198
160.320801
160.320343
160.319977
160.319672
160.319244
160.318939
160.318573
160.318268
160.321381
160.320892
160.320618
160.320160
160.319794
160.319550
160.319000
160.318726
160.318420
160.318024
160.321198
160.320770
160.320343
160.319946
160.319641
160.319244
160.318848
160.318573
160.318237
160.317841
160.320923
160.320587
160.320160
160.319794
160.319550
160.319000
160.318695
160.318451
160.317993
160.317719
160.320740
160.320343
160.319916
160.319611
160.319244
160.318878
160.318573
160.318176
160.317841
160.317474
160.322876
160.322418
160.322052
160.321564
160.321198
160.320801
160.320374
160.320007
160.319672
160.319244
160.322601
160.322235
160.321777
160.321381
160.320892
160.320618
160.320160
160.319794
160.319550
160.319000
160.322388
160.322021
160.321564
160.321198
160.320770
160.320343
160.319977
160.319641
160.319275
160.318848
160.322174
160.321808
160.321320
160.320923
160.320587
160.320160
160.319794
160.319550
160.319031
160.318695
160.321991
160.321564
160.321136
160.320770
160.320343
160.319946
160.319611
160.319244
160.318878
160.318512
160.321777
160.321350
160.320892
160.320587
160.320160
160.319794
160.319489
160.319000
160.318695
160.318390
160.321564
160.321198
160.320770
160.320343
160.319916
160.319611
160.319244
160.318878
160.318542
160.318176
160.321320
160.320892
160.320526
160.320160
160.319763
160.319489
160.319000
160.318665
160.318390
160.318024
160.321136
160.320709
160.320343
160.319946
160.319611
160.319244
160.318817
160.318542
160.318176
160.317871
160.320892
160.320526
160.320160
160.319794
160.319489
160.319061
160.318695
160.318390
160.318024
160.317719
160.323090
160.322540
160.322113
160.321777
160.321350
160.320892
160.320587
160.320160
160.319794
160.319489
160.322815
160.322388
160.321991
160.321564
160.321136
160.320770
160.320343
160.319916
160.319611
160.319244
160.322510
160.322174
160.321777
160.321320
160.320892
160.320557
160.320190
160.319763
160.319489
160.319000
160.322388
160.321991
160.321564
160.321136
160.320709
160.320343
160.319916
160.319611
160.319244
160.318817
160.322235
160.321747
160.321320
160.320892
160.320526
160.320160
160.319794
160.319458
160.319061
160.318695
160.321991
160.321533
160.321075
160.320709
160.320343
160.319977
160.319611
160.319244
160.318848
160.318542
160.321747
160.321289
160.320892
160.320526
160.320099
160.319733
160.319427
160.319061
160.318634
160.318390
160.321472
160.321136
160.320648
160.320343
160.319916
160.319550
160.319214
160.318787
160.318573
160.318207
160.321289
160.320892
160.320526
160.320160
160.319733
160.319427
160.319061
160.318634
160.318329
160.317963
160.321136
160.320679
160.320343
160.319977
160.319550
160.319183
160.318787
160.318512
160.318176
160.317841
160.323242
160.322784
160.322357
160.321991
160.321533
160.321136
160.320709
160.320343
160.319977
160.319580
160.323029
160.322540
160.322235
160.321747
160.321289
160.320892
160.320526
160.320099
160.319733
160.319427
160.322815
160.322357
160.321960
160.321472
160.321136
160.320648
160.320343
160.319916
160.319550
160.319244
160.322479
160.322174
160.321777
160.321289
160.320862
160.320526
160.320160
160.319702
160.319427
160.319061
160.322357
160.321930
160.321472
160.321136
160.320679
160.320343
160.319946
160.319550
160.319183
160.318787
160.322174
160.321747
160.321320
160.320892
160.320496
160.320160
160.319733
160.319427
160.319061
160.318573
160.321930
160.321442
160.321136
160.320648
160.320282
160.319916
160.319550
160.319183
160.318787
160.318512
160.321716
160.321289
160.320831
160.320526
160.320160
160.319763
160.319427
160.319000
160.318634
160.318390
160.321442
160.321075
160.320679
160.320282
160.319885
160.319611
160.319214
160.318787
160.318481
160.318146
160.321259
160.320862
160.320526
160.320099
160.319733
160.319427
160.319000
160.318634
160.318329
160.318024

SCALARS Alpha float 1
LOOKUP_TABLE default
-3.224762
-3.224745
-3.224730
-3.224715
-3.224700
-3.224686
-3.224672
-3.224657
-3.224644
-3.224628
-3.224753
-3.224738
-3.224722
-3.224707
-3.224692
-3.224679
-3.224664
-3.224650
-3.224637
-3.224623
-3.224745
-3.224729
-3.224715
-3.224699
-3.224686
-3.224672
-3.224656
-3.224643
-3.224628
-3.224616
-3.224738
-3.224721
-3.224706
-3.224693
-3.224679
-3.224664
-3.224651
-3.224635
-3.224621
-3.224610
-3.224730
-3.224714
-3.224699
-3.224686
-3.224672
-3.224656
-3.224644
-3.224628
-3.224616
-3.224603
-3.224722
-3.224706
-3.224693
-3.224679
-3.224664
-3.224650
-3.224635
-3.224621
-3.224609
-3.224598
-3.224715
-3.224698
-3.224685
-3.224672
-3.224655
-3.224644
-3.224627
-3.224616
-3.224602
-3.224589
-3.224705
-3.224692
-3.224679
-3.224664
-3.224650
-3.224635
-3.224620
-3.224608
-3.224597
-3.224583
-3.224699
-3.224685
-3.224671
-3.224654
-3.224643
-3.224626
-3.224615
-3.224601
-3.224589
-3.224576
-3.224691
-3.224678
-3.224664
-3.224649
-3.224634
-3.224620
-3.224608
-3.224597
-3.224581
-3.224571
-3.224768
-3.224753
-3.224737
-3.224721
-3.224706
-3.224693
-3.224679
-3.224664
-3.224650
-3.224635
-3.224760
-3.224746
-3.224729
-3.224715
-3.224698
-3.224685
-3.224672
-3.224655
-3.224644
-3.224627
-3.224752
-3.224737
-3.224722
-3.224706
-3.224692
-3.224679
-3.224664
-3.224650
-3.224635
-3.224621
-3.224744
-3.224728
-3.224714
-3.224699
-3.224685
-3.224671
-3.224654
-3.224643
-3.224627
-3.224615
-3.224736
-3.224721
-3.224706
-3.224692
-3.224678
-3.224663
-3.224649
-3.224634
-3.224621
-3.224608
-3.224729
-3.224714
-3.224700
-3.224685
-3.224671
-3.224654
-3.224642
-3.224627
-3.224615
-3.224602
-3.224720
-3.224706
-3.224690
-3.224677
-3.224662
-3.224648
-3.224634
-3.224620
-3.224608
-3.224597
-3.224714
-3.224698
-3.224684
-3.224670
-3.224653
-3.224643
-3.224626
-3.224615
-3.224601
-3.224589
-3.224704
-3.224691
-3.224678
-3.224661
-3.224648
-3.224634
-3.224621
-3.224608
-3.224596
-3.224581
-3.224698
-3.224683
-3.224670
-3.224654
-3.224642
-3.224627
-3.224614
-3.224601
-3.224588
-3.224575
-3.224776
-3.224760
-3.224744
-3.224728
-3.224713
-3.224700
-3.224685
-3.224671
-3.224654
-3.224642
-3.224766
-3.224752
-3.224736
-3.224721
-3.224706
-3.224690
-3.224677
-3.224662
-3.224648
-3.224634
-3.224759
-3.224743
-3.224728
-3.224714
-3.224698
-3.224684
-3.224670
-3.224654
-3.224643
-3.224626
-3.224751
-3.224735
-3.224720
-3.224704
-3.224691
-3.224678
-3.224660
-3.224649
-3.224634
-3.224622
-3.224743
-3.224729
-3.224712
-3.224698
-3.224684
-3.224669
-3.224654
-3.224642
-3.224627
-3.224614
-3.224735
-3.224721
-3.224705
-3.224690
-3.224677
-3.224661
-3.224648
-3.224633
-3.224620
-3.224607
-3.224728
-3.224713
-3.224698
-3.224683
-3.224669
-3.224654
-3.224642
-3.224626
-3.224614
-3.224601
-3.224720
-3.224704
-3.224690
-3.224677
-3.224660
-3.224648
-3.224631
-3.224620
-3.224606
-3.224596
-3.224712
-3.224696
-3.224683
-3.224669
-3.224654
-3.224641
-3.224626
-3.224613
-3.224600
-3.224588
-3.224704
-3.224690
-3.224677
-3.224660
-3.224648
-3.224632
-3.224620
-3.224607
-3.224595
-3.224580
-3.224783
-3.224766
-3.224752
-3.224735
-3.224721
-3.224705
-3.224690
-3.224677
-3.224661
-3.224648
-3.224775
-3.224760
-3.224743
-3.224728
-3.224713
-3.224698
-3.224683
-3.224669
-3.224654
-3.224642
-3.224765
-3.224751
-3.224735
-3.224720
-3.224704
-3.224690
-3.224677
-3.224660
-3.224648
-3.224632
-3.224759
-3.224743
-3.224727
-3.224712
-3.224697
-3.224683
-3.224669
-3.224654
-3.224641
-3.224626
-3.224750
-3.224734
-3.224719
-3.224704
-3.224690
-3.224677
-3.224660
-3.224648
-3.224632
-3.224620
-3.224742
-3.224727
-3.224711
-3.224696
-3.224683
-3.224669
-3.224653
-3.224641
-3.224627
-3.224614
-3.224733
-3.224719
-3.224703
-3.224690
-3.224676
-3.224659
-3.224647
-3.224632
-3.224620
-3.224607
-3.224726
-3.224710
-3.224696
-3.224683
-3.224669
-3.224653
-3.224641
-3.224626
-3.224614
-3.224601
-3.224718
-3.224704
-3.224691
-3.224676
-3.224658
-3.224647
-3.224632
-3.224619
-3.224606
-3.224593
-3.224710
-3.224695
-3.224683
-3.224669
-3.224653
-3.224640
-3.224626
-3.224614
-3.224599
-3.224586
-3.224791
-3.224775
-3.224758
-3.224742
-3.224727
-3.224711
-3.224696
-3.224683
-3.224669
-3.224653
-3.224781
-3.224766
-3.224750
-3.224734
-3.224719
-3.224703
-3.224690
-3.224676
-3.224659
-3.224648
-3.224774
-3.224757
-3.224742
-3.224726
-3.224711
-3.224696
-3.224682
-3.224669
-3.224652
-3.224641
-3.224765
-3.224749
-3.224734
-3.224718
-3.224703
-3.224691
-3.224676
-3.224659
-3.224647
-3.224632
-3.224757
-3.224741
-3.224726
-3.224710
-3.224695
-3.224683
-3.224669
-3.224652
-3.224640
-3.224626
-3.224748
-3.224733
-3.224717
-3.224703
-3.224690
-3.224676
-3.224659
-3.224646
-3.224632
-3.224619
-3.224742
-3.224726
-3.224711
-3.224694
-3.224682
-3.224668
-3.224652
-3.224640
-3.224626
-3.224613
-3.224733
-3.224717
-3.224702
-3.224689
-3.224674
-3.224659
-3.224645
-3.224631
-3.224618
-3.224606
-3.224725
-3.224711
-3.224695
-3.224681
-3.224668
-3.224652
-3.224639
-3.224626
-3.224613
-3.224600
-3.224717
-3.224702
-3.224689
-3.224674
-3.224659
-3.224645
-3.224631
-3.224618
-3.224607
-3.224593
-3.224797
-3.224781
-3.224764
-3.224749
-3.224733
-3.224717
-3.224703
-3.224690
-3.224676
-3.224659
-3.224788
-3.224773
-3.224756
-3.224741
-3.224725
-3.224711
-3.224694
-3.224682
-3.224668
-3.224652
-3.224780
-3.224764
-3.224749
-3.224732
-3.224717
-3.224702
-3.224689
-3.224674
-3.224659
-3.224645
-3.224773
-3.224756
-3.224741
-3.224725
-3.224711
-3.224695
-3.224682
-3.224668
-3.224652
-3.224639
-3.224763
-3.224748
-3.224732
-3.224717
-3.224702
-3.224689
-3.224674
-3.224658
-3.224645
-3.224631
-3.224756
-3.224741
-3.224725
-3.224710
-3.224694
-3.224680
-3.224666
-3.224652
-3.224639
-3.224625
-3.224748
-3.224731
-3.224716
-3.224701
-3.224689
-3.224674
-3.224659
-3.224646
-3.224630
-3.224618
-3.224740
-3.224724
-3.224709
-3.224693
-3.224681
-3.224666
-3.224652
-3.224638
-3.224624
-3.224611
-3.224731
-3.224716
-3.224701
-3.224688
-3.224673
-3.224658
-3.224646
-3.224630
-3.224619
-3.224606
-3.224723
-3.224709
-3.224693
-3.224680
-3.224665
-3.224652
-3.224638
-3.224624
-3.224611
-3.224599
-3.224803
-3.224788
-3.224772
-3.224756
-3.224741
-3.224725
-3.224710
-3.224694
-3.224680
-3.224666
-3.224796
-3.224779
-3.224763
-3.224749
-3.224731
-3.224716
-3.224701
-3.224689
-3.224674
-3.224658
-3.224788
-3.224771
-3.224755
-3.224740
-3.224724
-3.224710
-3.224693
-3.224681
-3.224666
-3.224652
-3.224779
-3.224763
-3.224748
-3.224731
-3.224716
-3.224701
-3.224688
-3.224673
-3.224658
-3.224646
-3.224771
-3.224756
-3.224740
-3.224723
-3.224708
-3.224693
-3.224679
-3.224665
-3.224651
-3.224637
-3.224764
-3.224747
-3.224732
-3.224716
-3.224701
-3.224688
-3.224672
-3.224659
-3.224645
-3.224630
-3.224754
-3.224739
-3.224723
-3.224708
-3.224693
-3.224680
-3.224665
-3.224650
-3.224638
-3.224623
-3.224747
-3.224731
-3.224716
-3.224700
-3.224688
-3.224672
-3.224658
-3.224645
-3.224629
-3.224618
-3.224738
-3.224723
-3.224708
-3.224693
-3.224680
-3.224665
-3.224650
-3.224638
-3.224623
-3.224611
-3.224731
-3.224717
-3.224700
-3.224687
-3.224673
-3.224658
-3.224643
-3.224628
-3.224617
-3.224604
-3.224811
-3.224795
-3.224779
-3.224764
-3.224747
-3.224732
-3.224717
-3.224701
-3.224688
-3.224672
-3.224803
-3.224786
-3.224771
-3.224755
-3.224739
-3.224723
-3.224708
-3.224693
-3.224680
-3.224665
-3.224795
-3.224778
-3.224763
-3.224747
-3.224732
-3.224717
-3.224701
-3.224688
-3.224673
-3.224658
-3.224788
-3.224770
-3.224754
-3.224739
-3.224723
-3.224708
-3.224693
-3.224680
-3.224665
-3.224650
-3.224779
-3.224764
-3.224746
-3.224731
-3.224717
-3.224700
-3.224687
-3.224673
-3.224658
-3.224644
-3.224769
-3.224754
-3.224739
-3.224722
-3.224708
-3.224692
-3.224679
-3.224664
-3.224650
-3.224638
-3.224763
-3.224746
-3.224731
-3.224715
-3.224700
-3.224686
-3.224672
-3.224657
-3.224645
-3.224627
-3.224753
-3.224739
-3.224722
-3.224707
-3.224692
-3.224679
-3.224665
-3.224650
-3.224637
-3.224623
-3.224745
-3.224730
-3.224715
-3.224700
-3.224686
-3.224673
-3.224656
-3.224644
-3.224628
-3.224617
-3.224738
-3.224722
-3.224707
-3.224692
-3.224679
-3.224664
-3.224651
-3.224637
-3.224623
-3.224610
-3.224818
-3.224802
-3.224786
-3.224769
-3.224753
-3.224739
-3.224722
-3.224708
-3.224692
-3.224679
-3.224809
-3.224795
-3.224779
-3.224763
-3.224746
-3.224731
-3.224715
-3.224700
-3.224686
-3.224672
-3.224802
-3.224786
-3.224769
-3.224753
-3.224738
-3.224722
-3.224708
-3.224692
-3.224679
-3.224665
-3.224794
-3.224778
-3.224762
-3.224745
-3.224730
-3.224715
-3.224700
-3.224686
-3.224672
-3.224657
-3.224785
-3.224768
-3.224753
-3.224738
-3.224722
-3.224707
-3.224692
-3.224679
-3.224664
-3.224650
-3.224777
-3.224762
-3.224745
-3.224729
-3.224715
-3.224699
-3.224686
-3.224672
-3.224656
-3.224643
-3.224768
-3.224753
-3.224738
-3.224721
-3.224706
-3.224693
-3.224679
-3.224664
-3.224651
-3.224636
-3.224761
-3.224745
-3.224730
-3.224714
-3.224699
-3.224686
-3.224672
-3.224656
-3.224644
-3.224628
-3.224753
-3.224738
-3.224722
-3.224706
-3.224692
-3.224679
-3.224664
-3.224650
-3.224635