# vtk DataFile Version 3.0
PINN prediction t=0.0
ASCII
DATASET UNSTRUCTURED_GRID
POINTS 1000 float
0.000000 0.000000 0.000000
0.000000 0.000000 0.044444
0.000000 0.000000 0.088889
0.000000 0.000000 0.133333
0.000000 0.000000 0.177778
0.000000 0.000000 0.222222
0.000000 0.000000 0.266667
0.000000 0.000000 0.311111
0.000000 0.000000 0.355556
0.000000 0.000000 0.400000
0.000000 0.088889 0.000000
0.000000 0.088889 0.044444
0.000000 0.088889 0.088889
0.000000 0.088889 0.133333
0.000000 0.088889 0.177778
0.000000 0.088889 0.222222
0.000000 0.088889 0.266667
0.000000 0.088889 0.311111
0.000000 0.088889 0.355556
0.000000 0.088889 0.400000
0.000000 0.177778 0.000000
0.000000 0.177778 0.044444
0.000000 0.177778 0.088889
0.000000 0.177778 0.133333
0.000000 0.177778 0.177778
0.000000 0.177778 0.222222
0.000000 0.177778 0.266667
0.000000 0.177778 0.311111
0.000000 0.177778 0.355556
0.000000 0.177778 0.400000
0.000000 0.266667 0.000000
0.000000 0.266667 0.044444
0.000000 0.266667 0.088889
0.000000 0.266667 0.133333
0.000000 0.266667 0.177778
0.000000 0.266667 0.222222
0.000000 0.266667 0.266667
0.000000 0.266667 0.311111
0.000000 0.266667 0.355556
0.000000 0.266667 0.400000
0.000000 0.355556 0.000000
0.000000 0.355556 0.044444
0.000000 0.355556 0.088889
0.000000 0.355556 0.133333
0.000000 0.355556 0.177778
0.000000 0.355556 0.222222
0.000000 0.355556 0.266667
0.000000 0.355556 0.311111
0.000000 0.355556 0.355556
0.000000 0.355556 0.400000
0.000000 0.444444 0.000000
0.000000 0.444444 0.044444
0.000000 0.444444 0.088889
0.000000 0.444444 0.133333
0.000000 0.444444 0.177778
0.000000 0.444444 0.222222
0.000000 0.444444 0.266667
0.000000 0.444444 0.311111
0.000000 0.444444 0.355556
0.000000 0.444444 0.400000
0.000000 0.533333 0.000000
0.000000 0.533333 0.044444
0.000000 0.533333 0.088889
0.000000 0.533333 0.133333
0.000000 0.533333 0.177778
0.000000 0.533333 0.222222
0.000000 0.533333 0.266667
0.000000 0.533333 0.311111
0.000000 0.533333 0.355556
0.000000 0.533333 0.400000
0.000000 0.622222 0.000000
0.000000 0.622222 0.044444
0.000000 0.622222 0.088889
0.000000 0.622222 0.133333
0.000000 0.622222 0.177778
0.000000 0.622222 0.222222
0.000000 0.622222 0.266667
0.000000 0.622222 0.311111
0.000000 0.622222 0.355556
0.000000 0.622222 0.400000
0.000000 0.711111 0.000000
0.000000 0.711111 0.044444
0.000000 0.711111 0.088889
0.000000 0.711111 0.133333
0.000000 0.711111 0.177778
0.000000 0.711111 0.222222
0.000000 0.711111 0.266667
0.000000 0.711111 0.311111
0.000000 0.711111 0.355556
0.000000 0.711111 0.400000
0.000000 0.800000 0.000000
0.000000 0.800000 0.044444
0.000000 0.800000 0.088889
0.000000 0.800000 0.133333
0.000000 0.800000 0.177778
0.000000 0.800000 0.222222
0.000000 0.800000 0.266667
0.000000 0.800000 0.311111
0.000000 0.800000 0.355556
0.000000 0.800000 0.400000
0.044444 0.000000 0.000000
0.044444 0.000000 0.044444
0.044444 0.000000 0.088889
0.044444 0.000000 0.133333
0.044444 0.000000 0.177778
0.044444 0.000000 0.222222
0.044444 0.000000 0.266667
0.044444 0.000000 0.311111
0.044444 0.000000 0.355556
0.044444 0.000000 0.400000
0.044444 0.088889 0.000000
0.044444 0.088889 0.044444
0.044444 0.088889 0.088889
0.044444 0.088889 0.133333
0.044444 0.088889 0.177778
0.044444 0.088889 0.222222
0.044444 0.088889 0.266667
0.044444 0.088889 0.311111
0.044444 0.088889 0.355556
0.044444 0.088889 0.400000
0.044444 0.177778 0.000000
0.044444 0.177778 0.044444
0.044444 0.177778 0.088889
0.044444 0.177778 0.133333
0.044444 0.177778 0.177778
0.044444 0.177778 0.222222
0.044444 0.177778 0.266667
0.044444 0.177778 0.311111
0.044444 0.177778 0.355556
0.044444 0.177778 0.400000
0.044444 0.266667 0.000000
0.044444 0.266667 0.044444
0.044444 0.266667 0.088889
0.044444 0.266667 0.133333
0.044444 0.266667 0.177778
0.044444 0.266667 0.222222
0.044444 0.266667 0.266667
0.044444 0.266667 0.311111
0.044444 0.266667 0.355556
0.044444 0.266667 0.400000
0.044444 0.355556 0.000000
0.044444 0.355556 0.044444
0.044444 0.355556 0.088889
0.044444 0.355556 0.133333
0.044444 0.355556 0.177778
0.044444 0.355556 0.222222
0.044444 0.355556 0.266667
0.044444 0.355556 0.311111
0.044444 0.355556 0.355556
0.044444 0.355556 0.400000
0.044444 0.444444 0.000000
0.044444 0.444444 0.044444
0.044444 0.444444 0.088889
0.044444 0.444444 0.133333
0.044444 0.444444 0.177778
0.044444 0.444444 0.222222
0.044444 0.444444 0.266667
0.044444 0.444444 0.311111
0.044444 0.444444 0.355556
0.044444 0.444444 0.400000
0.044444 0.533333 0.000000
0.044444 0.533333 0.044444
0.044444 0.533333 0.088889
0.044444 0.533333 0.133333
0.044444 0.533333 0.177778
0.044444 0.533333 0.222222
0.044444 0.533333 0.266667
0.044444 0.533333 0.311111
0.044444 0.533333 0.355556
0.044444 0.533333 0.400000
0.044444 0.622222 0.000000
0.044444 0.622222 0.044444
0.044444 0.622222 0.088889
0.044444 0.622222 0.133333
0.044444 0.622222 0.177778
0.044444 0.622222 0.222222
0.044444 0.622222 0.266667
0.044444 0.622222 0.311111
0.044444 0.622222 0.355556
0.044444 0.622222 0.400000
0.044444 0.711111 0.000000
0.044444 0.711111 0.044444
0.044444 0.711111 0.088889
0.044444 0.711111 0.133333
0.044444 0.711111 0.177778
0.044444 0.711111 0.222222
0.044444 0.711111 0.266667
0.044444 0.711111 0.311111
0.044444 0.711111 0.355556
0.044444 0.711111 0.400000
0.044444 0.800000 0.000000
0.044444 0.800000 0.044444
0.044444 0.800000 0.088889
0.044444 0.800000 0.133333
0.044444 0.800000 0.177778
0.044444 0.800000 0.222222
0.044444 0.800000 0.266667
0.044444 0.800000 0.311111
0.044444 0.800000 0.355556
0.044444 0.800000 0.400000
0.088889 0.000000 0.000000
0.088889 0.000000 0.044444
0.088889 0.000000 0.088889
0.088889 0.000000 0.133333
0.088889 0.000000 0.177778
0.088889 0.000000 0.222222
0.088889 0.000000 0.266667
0.088889 0.000000 0.311111
0.088889 0.000000 0.355556
0.088889 0.000000 0.400000
0.088889 0.088889 0.000000
0.088889 0.088889 0.044444
0.088889 0.088889 0.088889
0.088889 0.088889 0.133333
0.088889 0.088889 0.177778
0.088889 0.088889 0.222222
0.088889 0.088889 0.266667
0.088889 0.088889 0.311111
0.088889 0.088889 0.355556
0.088889 0.088889 0.400000
0.088889 0.177778 0.000000
0.088889 0.177778 0.044444
0.088889 0.177778 0.088889
0.088889 0.177778 0.133333
0.088889 0.177778 0.177778
0.088889 0.177778 0.222222
0.088889 0.177778 0.266667
0.088889 0.177778 0.311111
0.088889 0.177778 0.355556
0.088889 0.177778 0.400000
0.088889 0.266667 0.000000
0.088889 0.266667 0.044444
0.088889 0.266667 0.088889
0.088889 0.266667 0.133333
0.088889 0.266667 0.177778
0.088889 0.266667 0.222222
0.088889 0.266667 0.266667
0.088889 0.266667 0.311111
0.088889 0.266667 0.355556
0.088889 0.266667 0.400000
0.088889 0.355556 0.000000
0.088889 0.355556 0.044444
0.088889 0.355556 0.088889
0.088889 0.355556 0.133333
0.088889 0.355556 0.177778
0.088889 0.355556 0.222222
0.088889 0.355556 0.266667
0.088889 0.355556 0.311111
0.088889 0.355556 0.355556
0.088889 0.355556 0.400000
0.088889 0.444444 0.000000
0.088889 0.444444 0.044444
0.088889 0.444444 0.088889
0.088889 0.444444 0.133333
0.088889 0.444444 0.177778
0.088889 0.444444 0.222222
0.088889 0.444444 0.266667
0.088889 0.444444 0.311111
0.088889 0.444444 0.355556
0.088889 0.444444 0.400000
0.088889 0.533333 0.000000
0.088889 0.533333 0.044444
0.088889 0.533333 0.088889
0.088889 0.533333 0.133333
0.088889 0.533333 0.177778
0.088889 0.533333 0.222222
0.088889 0.533333 0.266667
0.088889 0.533333 0.311111
0.088889 0.533333 0.355556
0.088889 0.533333 0.400000
0.088889 0.622222 0.000000
0.088889 0.622222 0.044444
0.088889 0.622222 0.088889
0.088889 0.622222 0.133333
0.088889 0.622222 0.177778
0.088889 0.622222 0.222222
0.088889 0.622222 0.266667
0.088889 0.622222 0.311111
0.088889 0.622222 0.355556
0.088889 0.622222 0.400000
0.088889 0.711111 0.000000
0.088889 0.711111 0.044444
0.088889 0.711111 0.088889
0.088889 0.711111 0.133333
0.088889 0.711111 0.177778
0.088889 0.711111 0.222222
0.088889 0.711111 0.266667
0.088889 0.711111 0.311111
0.088889 0.711111 0.355556
0.088889 0.711111 0.400000
0.088889 0.800000 0.000000
0.088889 0.800000 0.044444
0.088889 0.800000 0.088889
0.088889 0.800000 0.133333
0.088889 0.800000 0.177778
0.088889 0.800000 0.222222
0.088889 0.800000 0.266667
0.088889 0.800000 0.311111
0.088889 0.800000 0.355556
0.088889 0.800000 0.400000
0.133333 0.000000 0.000000
0.133333 0.000000 0.044444
0.133333 0.000000 0.088889
0.133333 0.000000 0.133333
0.133333 0.000000 0.177778
0.133333 0.000000 0.222222
0.133333 0.000000 0.266667
0.133333 0.000000 0.311111
0.133333 0.000000 0.355556
0.133333 0.000000 0.400000
0.133333 0.088889 0.000000
0.133333 0.088889 0.044444
0.133333 0.088889 0.088889
0.133333 0.088889 0.133333
0.133333 0.088889 0.177778
0.133333 0.088889 0.222222
0.133333 0.088889 0.266667
0.133333 0.088889 0.311111
0.133333 0.088889 0.355556
0.133333 0.088889 0.400000
0.133333 0.177778 0.000000
0.133333 0.177778 0.044444
0.133333 0.177778 0.088889
0.133333 0.177778 0.133333
0.133333 0.177778 0.177778
0.133333 0.177778 0.222222
0.133333 0.177778 0.266667
0.133333 0.177778 0.311111
0.133333 0.177778 0.355556
0.133333 0.177778 0.400000
0.133333 0.266667 0.000000
0.133333 0.266667 0.044444
0.133333 0.266667 0.088889
0.133333 0.266667 0.133333
0.133333 0.266667 0.177778
0.133333 0.266667 0.222222
0.133333 0.266667 0.266667
0.133333 0.266667 0.311111
0.133333 0.266667 0.355556
0.133333 0.266667 0.400000
0.133333 0.355556 0.000000
0.133333 0.355556 0.044444
0.133333 0.355556 0.088889
0.133333 0.355556 0.133333
0.133333 0.355556 0.177778
0.133333 0.355556 0.222222
0.133333 0.355556 0.266667
0.133333 0.355556 0.311111
0.133333 0.355556 0.355556
0.133333 0.355556 0.400000
0.133333 0.444444 0.000000
0.133333 0.444444 0.044444
0.133333 0.444444 0.088889
0.133333 0.444444 0.133333
0.133333 0.444444 0.177778
0.133333 0.444444 0.222222
0.133333 0.444444 0.266667
0.133333 0.444444 0.311111
0.133333 0.444444 0.355556
0.133333 0.444444 0.400000
0.133333 0.533333 0.000000
0.133333 0.533333 0.044444
0.133333 0.533333 0.088889
0.133333 0.533333 0.133333
0.133333 0.533333 0.177778
0.133333 0.533333 0.222222
[...]
POINT_DATA 1000
SCALARS Temperature float 1
LOOKUP_TABLE default
52.608612
54.623962
55.178040
54.280640
51.996674
48.459808
43.882324
38.558533
32.856934
27.201996
47.480988
50.024109
51.059601
50.637024
48.864441
45.920807
42.060822
37.612091
32.962921
28.536530
37.529083
40.253876
41.520721
41.423645
40.116882
37.819824
34.819000
31.459839
28.125854
25.211090
27.019623
29.747192
31.151611
31.367035
30.581512
29.041901
27.046692
24.932678
23.052368
21.740723
17.935608
20.637238
22.221741
22.844452
22.708801
22.062286
21.186707
20.382294
19.941681
20.119690
10.563782
13.208069
14.988281
16.058380
16.608948
16.860077
17.049500
17.415192
18.172821
19.489838
4.963501
7.350616
9.140259
10.466797
11.487640
12.375671
13.307129
14.447052
15.931976
17.851990
2.769928
4.451263
5.779633
6.864929
7.827972
8.792480
9.875305
11.177429
12.772675
14.697021
8.515656
8.866882
9.035126
9.115723
9.207458
9.403656
9.786591
10.421112
11.349762
12.587616
27.393616
25.772034
24.005920
22.192413
20.428772
18.808167
17.413544
16.316101
15.569946
15.213318
47.457001
49.296204
49.860291
49.158478
47.242950
44.221100
40.265198
35.616364
30.582397
25.523834
42.572357
45.002563
46.094482
45.894348
44.494904
42.044556
38.755829
34.903259
30.816132
26.859406
33.152069
35.804321
37.147095
37.268433
36.305176
34.446503
31.936005
29.068848
26.175537
23.598785
23.536804
26.220673
27.702087
28.107239
27.607269
26.419098
24.802307
23.049042
21.466675
20.349762
15.708038
18.385284
20.030182
20.790222
20.851593
20.435699
19.792114
19.185028
18.872955
19.083405
9.949432
12.574371
14.377991
15.505188
16.131866
16.457977
16.697479
17.062561
17.749176
18.911194
6.305756
8.661835
10.417908
11.698883
12.650299
13.431183
14.203766
15.121307
16.314636
17.875366
6.311127
7.934509
9.160034
10.087280
10.828217
11.498657
12.211700
13.069519
14.152802
15.513458
14.214447
14.469360
14.463501
14.281708
14.015045
13.753967
13.585297
13.584229
13.812592
14.312531
34.798126
33.037659
31.035736
28.878235
26.656677
24.464264
22.392914
20.530243
18.958130
17.748840
44.164520
45.704620
46.144501
45.502319
43.827911
41.212921
37.798523
33.782135
29.415405
24.993896
39.314056
41.513092
42.533905
42.427856
41.282471
39.227051
36.440491
33.151459
29.633118
26.189941
30.257263
32.730469
34.033569
34.258820
33.534393
32.028320
29.951416
27.552734
25.110199
22.912720
21.376434
23.927185
25.387909
25.886353
25.584473
24.678497
23.395813
21.986938
20.713715
19.826447
14.626709
17.209290
18.838379
19.659576
19.850098
19.612244
19.167969
18.746887
18.572784
18.840393
10.271515
12.827759
14.600525
15.731171
16.387085
16.752441
17.019440
17.378052
18.000336
19.022430
8.340546
10.637115
12.328583
13.533783
14.390472
15.046173
15.651123
16.346161
17.253784
18.462891
10.278870
11.836731
12.951721
13.715118
14.231354
14.609467
14.958801
15.380615
15.961609
16.766205
20.069946
20.239471
20.072876
19.644989
19.038391
18.342346
17.644257
17.029022
16.575317
16.350220
42.090820
40.215881
38.006500
35.537415
32.893982
30.168335
27.458710
24.867615
22.500427
20.462799
42.473999
43.626465
43.837646
43.140381
41.591675
39.276947
36.318207
32.877777
29.158051
25.395782
37.449646
39.332275
40.180817
40.059509
39.058716
37.299652
34.937256
32.163269
29.201752
26.298492
28.590393
30.808380
31.981659
32.212158
31.628876
30.389038
28.678497
26.708801
24.711029
22.920197
20.284515
22.639526
24.004700
24.514099
24.329010
23.633209
22.630402
21.536743
20.570679
19.937988
14.431915
16.873627
18.428894
19.247559
19.504242
19.389893
19.104858
18.850159
18.815033
19.160980
11.260620
13.718536
15.421570
16.512665
17.155151
17.522919
17.793152
18.134857
18.697144
19.597137
10.783722
13.008636
14.617279
15.725769
16.467041
16.982117
17.411224
17.885468
18.517487
19.392914
14.372742
15.870270
16.877869
17.479340
17.773834
17.866699
17.864105
17.866760
17.965759
18.236267
25.767029
25.872742
25.567719
24.916595
23.997009
22.893890
21.698425
20.503204
19.401215
18.482880
48.950439
46.992401
44.610809
41.870178
38.848206
35.636749
32.339203
29.071228
25.959778
23.139923
42.024078
42.736542
42.646576
41.807892
40.289124
38.179321
35.590454
32.660187
29.552338
26.450592
36.634613
38.148651
38.755341
38.535248
37.587891
36.034058
34.016113
31.698944
29.265472
26.909485
27.825745
29.743988
30.726135
30.887207
30.362946
29.308044
27.894012
26.304413
24.729584
23.356049
19.949646
22.075867
23.296234
23.755524
23.619019
23.066498
22.286774
21.469086
20.796082
20.430908
14.821503
17.101624
18.548584
19.319550
19.591187
19.549927
19.382202
19.266937
19.363556
19.802063
12.618927
14.970917
16.585876
17.609924
18.206360
18.545593
18.794067
19.105286
19.609802
20.404633
13.338226
15.497345
17.021606
18.025604
18.640961
19.005188
19.254089
19.511139
19.881409
20.445862
18.291992
19.749573
20.665222
21.118530
21.204315
21.025421
20.688141
20.295074
19.941559
19.711639
31.001038
31.075043
30.663818
29.823090
28.624512
27.152283
25.500061
23.768860
22.066559
20.504059
55.072662
53.073059
50.563416
47.598236
44.249908
40.608765
36.784058
32.903076
29.113586
25.578033
42.392792
42.643127
42.212738
41.175171
39.614807
37.630127
35.332184
32.843994
30.300629
27.842133
36.481598
37.606232
37.932251
37.556519
36.593292
35.168213
33.420074
31.496368
29.549835
27.729706
27.608917
29.212921
29.971680
30.014526
29.487946
28.550232
27.366272
26.101196
24.915070
23.952911
20.044861
21.937378
22.991669
23.363312
23.226074
22.761261
22.150055
21.564697
21.159241
21.060364
15.491364
17.614746
18.944092
19.643433
19.895508
19.886658
19.796844
19.790497
20.004486
20.540497
14.061737
16.321747
17.851257
18.799255
19.332214
19.620270
19.826294
20.093475
20.538391
21.241882
15.732574
17.850098
19.305817
20.213684
20.704803
20.917999
20.986542
21.031952
21.156128
21.435974
21.773651
23.224701
24.079437
24.411011
24.310760
23.883270
23.236267
22.476288
21.705566
21.018005
35.513550
35.599060
35.125458
34.138306
32.705109
30.909363
28.849243
26.635620
24.390289
22.245300
60.207916
58.215851
55.631317
52.497955
48.882935
44.876251
40.593170
36.174133
31.785248
27.615540
43.147339
42.940704
42.156830
40.889130
39.239563
37.319397
35.244080
33.131378
31.096283
29.247070
36.610840
37.349335
37.381622
36.821472
35.795654
34.440887
32.897278
31.304352
29.793060
28.480469
27.606110
28.904907
29.433838
29.335510
28.767853
27.895233
26.883636
25.887817
25.046692
24.473053
20.275574
21.951355
22.842316
23.113159
22.946686
22.529144
22.040283
21.642578
21.470795
21.623596
16.179810
18.171783
19.395508
20.021729
20.237854
20.234772
20.191254
20.263458
20.574005
21.202515
15.354675
17.555359
19.021515
19.903931
20.372375
20.599976
20.748993
20.959778
21.340149
21.960632
17.756653
19.871552
21.291626
22.127625
22.511353
22.582977
22.479156
22.322388
22.215668
22.236206
24.624603
26.115448
26.952362
27.201141
26.951233
26.307587
25.382294
24.289764
23.140717
22.041992
39.122711
39.272736
38.790253
37.710846
36.096527
34.031158
31.619446
28.982849
26.258881
23.600372
64.187622
62.260193
59.661011
56.423553
52.608704
48.308289
43.643188
38.767395
33.866180
29.154144
43.901642
43.258636
42.129089
40.621826
38.856812
36.957916
35.049652
33.249084
31.661591
30.372253
36.699341
37.072601
36.818756
36.065033
34.951813
33.625885
32.233429
30.912109
29.779755
28.930573
27.548157
28.567657
28.880280
28.638519
28.010620
27.169708
26.283691
25.505157
24.959717
24.738220
20.416718
21.909058
22.657990
22.835510
22.630676
22.236084
21.833496
21.581848
21.604858
21.982086
16.699310
18.599609
19.747803
20.317139
20.500031
20.491119
20.471527
20.594879
20.976074
21.682739
16.344208
18.531067
19.971588
20.815796
21.234650
21.405151
21.492157
21.636841
21.945831
22.484161
19.286530
21.449280
22.878815
23.681152
23.987244
23.939484
23.678497
23.332855
23.010437
22.793243
26.743622
28.329193
29.201721
29.418793
29.064911
28.246918
27.082947
25.696045
24.209930
22.745514
41.744965
42.017792
41.587402
40.477509
38.744446
36.471405
33.770508
30.774536
27.639771
24.540039
66.942993
65.141388
62.593903
59.322113
55.381683
50.863708
45.897980
40.651520
35.329590
30.170898
44.356842
43.310425
41.854492
40.113586
38.221771
36.315552
34.529083
32.983398
31.779144
30.987305
36.519104
36.557648
36.037140
35.096619
33.886383
32.563660
31.280762
30.176575
29.364502
28.923035
27.260773
28.036194
28.158325
27.786346
27.095520
26.266693
25.471893
24.864227
24.563263
24.646027
20.336121
21.687347
22.327301
22.432526
22.195831
21.814270
21.473663
21.332306
21.509338
22.073914
16.954742
18.811188
19.924194
20.466553
20.632446
20.619171
20.611084
20.763580
21.189240
21.950378
16.969421
19.194550
20.655914
21.500549
21.897858
22.026428
22.055359
22.129547
22.359070
22.810547
20.291992
22.557861
24.050171
24.867279
25.136475
25.001007
24.606659
24.089233
23.566010
23.129089
28.128174
29.866028
30.833954
31.076965
30.673859
29.731598
28.373749
26.734863
24.953308
23.167206
43.396301
43.852203
43.538849
42.465912
40.681335
38.268677
35.344879
32.057556
28.580811
25.110840
68.507080
66.892731
64.465118
61.232819
57.244049
52.590698
47.408325
41.879486
36.228516
30.718903
44.329926
42.916962
41.161743
39.201599
37.181641
35.250214
33.549072
32.204926
31.318237
30.952484
35.952209
35.690704
34.930237
33.817230
32.511169
31.176331
29.970764
29.036224
28.484375
28.386475
26.672638
27.242950
27.205139
26.723511
25.977844
25.152985
24.425232
23.948608
23.841156
24.173126
19.997772
21.251740
21.821014
21.881836
21.628937
21.262085
20.968262
20.907593
21.198914
21.906921
16.939575
18.801270
19.923096
20.474823
20.648834
20.642822
20.643280
20.808105
21.252594
22.039276
17.253113
19.568970
21.101898
21.990723
22.401947
22.512787
22.495453
22.499969
22.642639
22.997192
20.826813
23.250885
24.861389
25.745850
26.024750
25.840820
25.342743
24.675507
23.967346
23.323761
28.859131
30.806366
31.929199
32.258881
31.866058
30.854614
29.353363
27.507751
25.472565
23.405487
44.180115
44.878143
44.745209
43.776917
42.011230
39.529083
36.453369
32.943665
29.193085
25.421661
68.999878
67.631653
65.390472
62.270905
58.312622
53.606171
48.293640
42.570862
36.682159
30.914062

SCALARS Alpha float 1
LOOKUP_TABLE default
-0.012552
0.002760
0.015361
0.024989
0.031459
0.034709
0.034849
0.032191
0.027260
0.020780
-0.014600
0.000524
0.012566
0.021362
0.026849
0.029111
0.028409
0.025206
0.020160
0.014092
-0.020737
-0.006696
0.004105
0.011628
0.015948
0.017296
0.016074
0.012866
0.008416
0.003569
-0.018572
-0.006027
0.003288
0.009455
0.012682
0.013320
0.011878
0.009005
0.005459
0.002042
-0.006393
0.004700
0.012686
0.017741
0.020157
0.020363
0.018903
0.016426
0.013630
0.011201
0.008967
0.018709
0.025509
0.029579
0.031252
0.030960
0.029224
0.026622
0.023745
0.021131
0.018233
0.026386
0.031705
0.034413
0.034822
0.033328
0.030388
0.026484
0.022089
0.017619
0.019762
0.025671
0.028745
0.029194
0.027306
0.023435
0.017976
0.011344
0.003930
-0.003918
0.029203
0.032007
0.031827
0.028877
0.023445
0.015877
0.006558
-0.004122
-0.015779
-0.028064
0.072118
0.070791
0.066169
0.058495
0.048094
0.035354
0.020698
0.004570
-0.012591
-0.030359
-0.019724
-0.005107
0.007232
0.017064
0.024201
0.028536
0.030092
0.029054
0.025794
0.020865
-0.018797
-0.004015
0.008061
0.017280
0.023562
0.026932
0.027557
0.025772
0.022089
0.017178
-0.022362
-0.008379
0.002681
0.010778
0.015958
0.018389
0.018372
0.016374
0.013005
0.008992
-0.018101
-0.005393
0.004338
0.011162
0.015250
0.016886
0.016486
0.014599
0.011871
0.009013
-0.004273
0.007138
0.015625
0.021339
0.024539
0.025584
0.024948
0.023192
0.020939
0.018818
0.012557
0.022701
0.030003
0.034659
0.036952
0.037267
0.036067
0.033873
0.031234
0.028669
0.023401
0.031974
0.037739
0.040886
0.041693
0.040517
0.037777
0.033934
0.029450
0.024756
0.026563
0.032859
0.036275
0.036985
0.035248
0.031387
0.025787
0.018866
0.011035
0.002686
0.037093
0.040212
0.040250
0.037382
0.031869
0.024039
0.014280
0.003008
-0.009350
-0.022377
0.079795
0.078697
0.074177
0.066441
0.055787
0.042592
0.027294
0.010370
-0.007676
-0.026341
-0.022624
-0.009100
0.002525
0.012076
0.019395
0.024368
0.026966
0.027277
0.025540
0.022149
-0.019627
-0.005570
0.006110
0.015299
0.021933
0.026013
0.027645
0.027060
0.024639
0.020907
-0.021456
-0.007895
0.003023
0.011286
0.016934
0.020102
0.021026
0.020071
0.017724
0.014583
-0.015911
-0.003379
0.006405
0.013523
0.018131
0.020479
0.020913
0.019886
0.017944
0.015694
-0.001225
0.010194
0.018856
0.024917
0.028613
0.030267
0.030289
0.029166
0.027443
0.025676
0.016309
0.026573
0.034100
0.039073
0.041758
0.042500
0.041714
0.039871
0.037470
0.034993
0.027989
0.036733
0.042707
0.046084
0.047116
0.046130
0.043514
0.039703
0.035144
0.030264
0.032060
0.038532
0.042103
0.042922
0.041219
0.037302
0.031536
0.024332
0.016121
0.007324
0.042995
0.046260
0.046379
0.043498
0.037850
0.029750
0.019577
0.007765
-0.005222
-0.018913
0.084860
0.083856
0.079345
0.071502
0.060597
0.046994
0.031131
0.013512
-0.005309
-0.024757
-0.021704
-0.009563
0.000982
0.009830
0.016877
0.022036
0.025260
0.026584
0.026137
0.024180
-0.017566
-0.004527
0.006398
0.015156
0.021718
0.026094
0.028363
0.028687
0.027344
0.024722
-0.018491
-0.005637
0.004803
0.012853
0.018583
0.022121
0.023667
0.023513
0.022045
0.019739
-0.012445
-0.000360
0.009163
0.016235
0.021023
0.023765
0.024763
0.024405
0.023144
0.021487
0.002354
0.013522
0.022074
0.028180
0.032079
0.034077
0.034543
0.033907
0.032639
0.031228
0.019860
0.030008
0.037505
0.042539
0.045371
0.046329
0.045797
0.044201
0.041995
0.039623
0.031642
0.040344
0.046312
0.049709
0.050777
0.049831
0.047236
0.043402
0.038758
0.033728
0.035887
0.042349
0.045900
0.046672
0.044881
0.040820
0.034844
0.027359
0.018803
0.009621
0.046526
0.049780
0.049850
0.046855
0.041012
0.032619
0.022056
0.009762
-0.003770
-0.018025
0.086926
0.085887
0.081294
0.073291
0.062128
0.048154
0.031805
0.013610
-0.005849
-0.025930
-0.017689
-0.007107
0.002107
0.009925
0.016315
0.021241
0.024678
0.026635
0.027182
0.026463
-0.013311
-0.001476
0.008440
0.016447
0.022568
0.026849
0.029371
0.030271
0.029750
0.028087
-0.014096
-0.002137
0.007573
0.015109
0.020577
0.024130
0.025960
0.026318
0.025517
0.023933
-0.008242
0.003209
0.012235
0.018980
0.023640
0.026461
0.027736
0.027807
0.027061
0.025918
0.006008
0.016747
0.024971
0.030872
0.034706
0.036783
0.037456
0.037120
0.036188
0.035082
0.022836
0.032696
0.039965
0.044844
0.047603
0.048568
0.048109
0.046629
0.044543
0.042258
0.034037
0.042539
0.048327
0.051568
0.052506
0.051450
0.048760
0.044832
0.040081
0.034920
0.037741
0.044052
0.047442
0.048037
0.046046
0.041757
0.035525
0.027753
0.018889
0.009389
0.047389
0.050510
0.050423
0.047233
0.041140
0.032438
0.021506
0.008797
-0.005183
-0.019873
0.085710
0.084536
0.079782
0.071578
0.060155
0.045851
0.029108
0.010459
-0.009475
-0.030007
-0.011495
-0.002530
0.005218
0.011795
0.017241
0.021588
0.024857
0.027071
0.028270
0.028530
-0.007678
0.002874
0.011639
0.018677
0.024075
0.027929
0.030353
0.031482
0.031483
0.030559
-0.008965
0.002011
0.010848
0.017660
0.022603
0.025863
0.027655
0.028221
0.027834
0.026793
-0.003866
0.006864
0.015253
0.021478
0.025770
0.028401
0.029674
0.029918
0.029480
0.028714
0.009309
0.019531
0.027296
0.032819
0.036381
0.038311
0.038965
0.038725
0.037973
0.037081
0.024919
0.034401
0.041325
0.045902
0.048419
0.049213
0.048659
0.047154
0.045091
0.042850
0.034940
0.043154
0.048660
0.051627
0.052309
0.051023
0.048133
0.044038
0.039148
0.033872
0.037441
0.043516
0.046661
0.046994
0.044725
0.040149
0.033626
0.025569
0.016432
0.006695
0.045432
0.048345
0.048037
0.044599
0.038230
0.029222
0.017959
0.004905
-0.009407
-0.024389
0.081091
0.079714
0.074759
0.066336
0.054669
0.040092
0.023049
0.004089
-0.016139
-0.036912
-0.004112
0.003281
0.009546
0.014788
0.019115
0.022632
0.025421
0.027546
0.029054
0.029986
-0.001490
0.007797
0.015370
0.021339
0.025838
0.029022
0.031052
0.032091
0.032302
0.031854
-0.003749
0.006250
0.014168
0.020155
0.024406
0.027149
0.028637
0.029127
0.028881
0.028161
0.000207
0.010214
0.017923
0.023535
0.027311
0.029554
0.030596
0.030773
0.030423
0.029858
0.011940
0.021639
0.028906
0.033971
0.037137
0.038756
0.039208
0.038879
0.038143
0.037343
0.025926
0.035024
0.041568
0.045777
0.047954
0.048459
0.047682
0.046027
0.043887
0.041629
0.034273
0.042186
0.047379
0.050026
0.050390
0.048801
0.045642
0.041323
0.036265
0.030878
0.034978
0.040799
0.043673
0.043719
0.041147
0.036265
0.029444
0.021118
0.011757
0.001862
0.040693
0.043376
0.042833
0.039147
0.032514
0.023229
0.011693
-0.001616
-0.016139
-0.031256
0.073149
0.071552
0.066390
0.057767
0.045900
0.031125
0.013896
-0.005220
-0.025554
-0.046339
0.003535
0.009476
0.014337
0.018260
0.021410
0.023952
0.026038
0.027788
0.029283
0.030566
0.004537
0.012652
0.019092
0.023989
0.027522
0.029894
0.031319
0.032004
0.032136
0.031879
0.001042
0.010141
0.017189
0.022347
0.025841
0.027941
0.028934
0.029114
0.028759
0.028122
0.003655
0.013011
0.020086
0.025086
0.028293
0.030042
0.030694
0.030612
0.030141
0.029591
0.013746
0.022990
0.029803
0.034418
0.037154
0.038384
0.038514
0.037951
0.037083
0.036244
0.025848
0.034619
0.040826
0.044687
0.046512
0.046681
0.045607
0.043715
0.041413
0.039072
0.032143
0.039800
0.044721
0.047074
0.047127
0.045227
0.041777
0.037211
0.031971
0.026480
0.030546
0.036145
0.038786
0.038579
0.035737
0.030576
0.023491
0.014938
0.005413
-0.004558
0.033424
0.035901
0.035158
0.031269
0.024427
0.014936
0.003211
-0.010244
-0.024843
-0.039934
0.062185
0.060385
0.055055
0.046287
0.034296
0.019426
0.002141
-0.016969
-0.037205
-0.057772
0.010687
0.015356
0.018961
0.021668
0.023678
0.025206
0.026465
0.027634
0.028845
0.030172
0.009890
0.016977
0.022403
0.026313
0.028906
0.030426
0.031130
0.031274
0.031085
0.030751
0.005105
0.013433
0.019718
0.024125
0.026892
0.028313
0.028713
0.028423
0.027752
0.026970
0.006357
0.015182
0.021727
0.026193
0.028869
0.030106
0.030293
0.029826
0.029074
0.028360
0.014764
0.023666
0.030128
0.034376
0.036728
0.037571
0.037337
0.036458
0.035343
0.034346
0.024856
0.033404
0.039372
0.042968
0.044502
0.044362
0.042984
0.040820
0.038303
0.035826
0.028835
0.036326
0.041066
0.043210
0.043023
0.040865
0.037158
0.032362
0.026949
0.021372
0.024525
0.029975
0.032464
0.032089
0.029058
0.023698
0.016422
0.007714
-0.001895
-0.011853
0.024075
0.026404
0.025536
0.021529
0.014572
0.004978
-0.006821
-0.020295
-0.034827
-0.049730
0.048702
0.046747
0.041317
0.032492
0.020484
0.005643
-0.011551
-0.030481
-0.050422
-0.070543
0.016839
0.020439
0.022978
0.024630
0.025614
0.026179
0.026578
0.027047
0.027773
0.028877
0.014300
0.020522
0.025094
0.028154
0.029908
0.030618
0.030575
0.030074
0.029391
0.028751
0.008358
0.016060
0.021727
0.025511
0.027646
0.028438
0.028231
0.027391
0.026263
0.025150
0.008385
0.016815
0.022968
0.027026
0.029269
0.030053
0.029782
0.028876
0.027739
0.026721
0.015196
0.023882
0.030129
0.034135
0.036207
0.036738
0.036166
0.034951
0.033530
0.032287
0.023264
0.031709
0.037568
0.041023
0.042375
0.042013
0.040385
0.037968
0.035226
0.032579
0.024769
0.032202
0.036880
0.038936
0.038624
0.036308
0.032423
0.027459
0.021916
0.016281
0.017430
0.022822
0.025267
0.024837
0.021737
0.016293
0.008935
0.000174
-0.009426
-0.019274
0.013242
0.015498
0.014598
0.010580
0.003630
-0.005936
-0.017673
-0.031025
-0.045339
-0.059896
0.033349
0.031305
0.025860
0.017081
0.005180
-0.009492
-0.026433
-0.045009
-0.064459
-0.083920
