# vtk DataFile Version 3.0
PINN prediction t=8937.9306640625
ASCII
DATASET UNSTRUCTURED_GRID
POINTS 1000 float
0.000000 0.000000 0.000000
0.000000 0.000000 0.044444
0.000000 0.000000 0.088889
0.000000 0.000000 0.133333
0.000000 0.000000 0.177778
0.000000 0.000000 0.222222
0.000000 0.000000 0.266667
0.000000 0.000000 0.311111
0.000000 0.000000 0.355556
0.000000 0.000000 0.400000
0.000000 0.088889 0.000000
0.000000 0.088889 0.044444
0.000000 0.088889 0.088889
0.000000 0.088889 0.133333
0.000000 0.088889 0.177778
0.000000 0.088889 0.222222
0.000000 0.088889 0.266667
0.000000 0.088889 0.311111
0.000000 0.088889 0.355556
0.000000 0.088889 0.400000
0.000000 0.177778 0.000000
0.000000 0.177778 0.044444
0.000000 0.177778 0.088889
0.000000 0.177778 0.133333
0.000000 0.177778 0.177778
0.000000 0.177778 0.222222
0.000000 0.177778 0.266667
0.000000 0.177778 0.311111
0.000000 0.177778 0.355556
0.000000 0.177778 0.400000
0.000000 0.266667 0.000000
0.000000 0.266667 0.044444
0.000000 0.266667 0.088889
0.000000 0.266667 0.133333
0.000000 0.266667 0.177778
0.000000 0.266667 0.222222
0.000000 0.266667 0.266667
0.000000 0.266667 0.311111
0.000000 0.266667 0.355556
0.000000 0.266667 0.400000
0.000000 0.355556 0.000000
0.000000 0.355556 0.044444
0.000000 0.355556 0.088889
0.000000 0.355556 0.133333
0.000000 0.355556 0.177778
0.000000 0.355556 0.222222
0.000000 0.355556 0.266667
0.000000 0.355556 0.311111
0.000000 0.355556 0.355556
0.000000 0.355556 0.400000
0.000000 0.444444 0.000000
0.000000 0.444444 0.044444
0.000000 0.444444 0.088889
0.000000 0.444444 0.133333
0.000000 0.444444 0.177778
0.000000 0.444444 0.222222
0.000000 0.444444 0.266667
0.000000 0.444444 0.311111
0.000000 0.444444 0.355556
0.000000 0.444444 0.400000
0.000000 0.533333 0.000000
0.000000 0.533333 0.044444
0.000000 0.533333 0.088889
0.000000 0.533333 0.133333
0.000000 0.533333 0.177778
0.000000 0.533333 0.222222
0.000000 0.533333 0.266667
0.000000 0.533333 0.311111
0.000000 0.533333 0.355556
0.000000 0.533333 0.400000
0.000000 0.622222 0.000000
0.000000 0.622222 0.044444
0.000000 0.622222 0.088889
0.000000 0.622222 0.133333
0.000000 0.622222 0.177778
0.000000 0.622222 0.222222
0.000000 0.622222 0.266667
0.000000 0.622222 0.311111
0.000000 0.622222 0.355556
0.000000 0.622222 0.400000
0.000000 0.711111 0.000000
0.000000 0.711111 0.044444
0.000000 0.711111 0.088889
0.000000 0.711111 0.133333
0.000000 0.711111 0.177778
0.000000 0.711111 0.222222
0.000000 0.711111 0.266667
0.000000 0.711111 0.311111
0.000000 0.711111 0.355556
0.000000 0.711111 0.400000
0.000000 0.800000 0.000000
0.000000 0.800000 0.044444
0.000000 0.800000 0.088889
0.000000 0.800000 0.133333
0.000000 0.800000 0.177778
0.000000 0.800000 0.222222
0.000000 0.800000 0.266667
0.000000 0.800000 0.311111
0.000000 0.800000 0.355556
0.000000 0.800000 0.400000
0.044444 0.000000 0.000000
0.044444 0.000000 0.044444
0.044444 0.000000 0.088889
0.044444 0.000000 0.133333
0.044444 0.000000 0.177778
0.044444 0.000000 0.222222
0.044444 0.000000 0.266667
0.044444 0.000000 0.311111
0.044444 0.000000 0.355556
0.044444 0.000000 0.400000
0.044444 0.088889 0.000000
0.044444 0.088889 0.044444
0.044444 0.088889 0.088889
0.044444 0.088889 0.133333
0.044444 0.088889 0.177778
0.044444 0.088889 0.222222
0.044444 0.088889 0.266667
0.044444 0.088889 0.311111
0.044444 0.088889 0.355556
0.044444 0.088889 0.400000
0.044444 0.177778 0.000000
0.044444 0.177778 0.044444
0.044444 0.177778 0.088889
0.044444 0.177778 0.133333
0.044444 0.177778 0.177778
0.044444 0.177778 0.222222
0.044444 0.177778 0.266667
0.044444 0.177778 0.311111
0.044444 0.177778 0.355556
0.044444 0.177778 0.400000
0.044444 0.266667 0.000000
0.044444 0.266667 0.044444
0.044444 0.266667 0.088889
0.044444 0.266667 0.133333
0.044444 0.266667 0.177778
0.044444 0.266667 0.222222
0.044444 0.266667 0.266667
0.044444 0.266667 0.311111
0.044444 0.266667 0.355556
0.044444 0.266667 0.400000
0.044444 0.355556 0.000000
0.044444 0.355556 0.044444
0.044444 0.355556 0.088889
0.044444 0.355556 0.133333
0.044444 0.355556 0.177778
0.044444 0.355556 0.222222
0.044444 0.355556 0.266667
0.044444 0.355556 0.311111
0.044444 0.355556 0.355556
0.044444 0.355556 0.400000
0.044444 0.444444 0.000000
0.044444 0.444444 0.044444
0.044444 0.444444 0.088889
0.044444 0.444444 0.133333
0.044444 0.444444 0.177778
0.044444 0.444444 0.222222
0.044444 0.444444 0.266667
0.044444 0.444444 0.311111
0.044444 0.444444 0.355556
0.044444 0.444444 0.400000
0.044444 0.533333 0.000000
0.044444 0.533333 0.044444
0.044444 0.533333 0.088889
0.044444 0.533333 0.133333
0.044444 0.533333 0.177778
0.044444 0.533333 0.222222
0.044444 0.533333 0.266667
0.044444 0.533333 0.311111
0.044444 0.533333 0.355556
0.044444 0.533333 0.400000
0.044444 0.622222 0.000000
0.044444 0.622222 0.044444
0.044444 0.622222 0.088889
0.044444 0.622222 0.133333
0.044444 0.622222 0.177778
0.044444 0.622222 0.222222
0.044444 0.622222 0.266667
0.044444 0.622222 0.311111
0.044444 0.622222 0.355556
0.044444 0.622222 0.400000
0.044444 0.711111 0.000000
0.044444 0.711111 0.044444
0.044444 0.711111 0.088889
0.044444 0.711111 0.133333
0.044444 0.711111 0.177778
0.044444 0.711111 0.222222
0.044444 0.711111 0.266667
0.044444 0.711111 0.311111
0.044444 0.711111 0.355556
0.044444 0.711111 0.400000
0.044444 0.800000 0.000000
0.044444 0.800000 0.044444
0.044444 0.800000 0.088889
0.044444 0.800000 0.133333
0.044444 0.800000 0.177778
0.044444 0.800000 0.222222
0.044444 0.800000 0.266667
0.044444 0.800000 0.311111
0.044444 0.800000 0.355556
0.044444 0.800000 0.400000
0.088889 0.000000 0.000000
0.088889 0.000000 0.044444
0.088889 0.000000 0.088889
0.088889 0.000000 0.133333
0.088889 0.000000 0.177778
0.088889 0.000000 0.222222
0.088889 0.000000 0.266667
0.088889 0.000000 0.311111
0.088889 0.000000 0.355556
0.088889 0.000000 0.400000
0.088889 0.088889 0.000000
0.088889 0.088889 0.044444
0.088889 0.088889 0.088889
0.088889 0.088889 0.133333
0.088889 0.088889 0.177778
0.088889 0.088889 0.222222
0.088889 0.088889 0.266667
0.088889 0.088889 0.311111
0.088889 0.088889 0.355556
0.088889 0.088889 0.400000
0.088889 0.177778 0.000000
0.088889 0.177778 0.044444
0.088889 0.177778 0.088889
0.088889 0.177778 0.133333
0.088889 0.177778 0.177778
0.088889 0.177778 0.222222
0.088889 0.177778 0.266667
0.088889 0.177778 0.311111
0.088889 0.177778 0.355556
0.088889 0.177778 0.400000
0.088889 0.266667 0.000000
0.088889 0.266667 0.044444
0.088889 0.266667 0.088889
0.088889 0.266667 0.133333
0.088889 0.266667 0.177778
0.088889 0.266667 0.222222
0.088889 0.266667 0.266667
0.088889 0.266667 0.311111
0.088889 0.266667 0.355556
0.088889 0.266667 0.400000
0.088889 0.355556 0.000000
0.088889 0.355556 0.044444
0.088889 0.355556 0.088889
0.088889 0.355556 0.133333
0.088889 0.355556 0.177778
0.088889 0.355556 0.222222
0.088889 0.355556 0.266667
0.088889 0.355556 0.311111
0.088889 0.355556 0.355556
0.088889 0.355556 0.400000
0.088889 0.444444 0.000000
0.088889 0.444444 0.044444
0.088889 0.444444 0.088889
0.088889 0.444444 0.133333
0.088889 0.444444 0.177778
0.088889 0.444444 0.222222
0.088889 0.444444 0.266667
0.088889 0.444444 0.311111
0.088889 0.444444 0.355556
0.088889 0.444444 0.400000
0.088889 0.533333 0.000000
0.088889 0.533333 0.044444
0.088889 0.533333 0.088889
0.088889 0.533333 0.133333
0.088889 0.533333 0.177778
0.088889 0.533333 0.222222
0.088889 0.533333 0.266667
0.088889 0.533333 0.311111
0.088889 0.533333 0.355556
0.088889 0.533333 0.400000
0.088889 0.622222 0.000000
0.088889 0.622222 0.044444
0.088889 0.622222 0.088889
0.088889 0.622222 0.133333
0.088889 0.622222 0.177778
0.088889 0.622222 0.222222
0.088889 0.622222 0.266667
0.088889 0.622222 0.311111
0.088889 0.622222 0.355556
0.088889 0.622222 0.400000
0.088889 0.711111 0.000000
0.088889 0.711111 0.044444
0.088889 0.711111 0.088889
0.088889 0.711111 0.133333
0.088889 0.711111 0.177778
0.088889 0.711111 0.222222
0.088889 0.711111 0.266667
0.088889 0.711111 0.311111
0.088889 0.711111 0.355556
0.088889 0.711111 0.400000
0.088889 0.800000 0.000000
0.088889 0.800000 0.044444
0.088889 0.800000 0.088889
0.088889 0.800000 0.133333
0.088889 0.800000 0.177778
0.088889 0.800000 0.222222
0.088889 0.800000 0.266667
0.088889 0.800000 0.311111
0.088889 0.800000 0.355556
0.088889 0.800000 0.400000
0.133333 0.000000 0.000000
0.133333 0.000000 0.044444
0.133333 0.000000 0.088889
0.133333 0.000000 0.133333
0.133333 0.000000 0.177778
0.133333 0.000000 0.222222
0.133333 0.000000 0.266667
0.133333 0.000000 0.311111
0.133333 0.000000 0.355556
0.133333 0.000000 0.400000
0.133333 0.088889 0.000000
0.133333 0.088889 0.044444
0.133333 0.088889 0.088889
0.133333 0.088889 0.133333
0.133333 0.088889 0.177778
0.133333 0.088889 0.222222
0.133333 0.088889 0.266667
0.133333 0.088889 0.311111
0.133333 0.088889 0.355556
0.133333 0.088889 0.400000
0.133333 0.177778 0.000000
0.133333 0.177778 0.044444
0.133333 0.177778 0.088889
0.133333 0.177778 0.133333
0.133333 0.177778 0.177778
0.133333 0.177778 0.222222
0.133333 0.177778 0.266667
0.133333 0.177778 0.311111
0.133333 0.177778 0.355556
0.133333 0.177778 0.400000
0.133333 0.266667 0.000000
0.133333 0.266667 0.044444
0.133333 0.266667 0.088889
0.133333 0.266667 0.133333
0.133333 0.266667 0.177778
0.133333 0.266667 0.222222
0.133333 0.266667 0.266667
0.133333 0.266667 0.311111
0.133333 0.266667 0.355556
0.133333 0.266667 0.400000
0.133333 0.355556 0.000000
0.133333 0.355556 0.044444
0.133333 0.355556 0.088889
0.133333 0.355556 0.133333
0.133333 0.355556 0.177778
0.133333 0.355556 0.222222
0.133333 0.355556 0.266667
0.133333 0.355556 0.311111
0.133333 0.355556 0.355556
0.133333 0.355556 0.400000
0.133333 0.444444 0.000000
0.133333 0.444444 0.044444
0.133333 0.444444 0.088889
0.133333 0.444444 0.133333
0.133333 0.444444 0.177778
0.133333 0.444444 0.222222
0.133333 0.444444 0.266667
0.133333 0.444444 0.311111
0.133333 0.444444 0.355556
0.133333 0.444444 0.400000
0.133333 0.533333 0.000000
0.133333 0.533333 0.044444
0.133333 0.533333 0.088889
0.133333 0.533333 0.133333
0.133333 0.533333 0.177778
0.133333 0.533333 0.222222
[...]
POINT_DATA 1000
SCALARS Temperature float 1
LOOKUP_TABLE default
32.147614
32.146179
32.144409
32.143433
32.141663
32.140350
32.138794
32.137390
32.135742
32.134521
32.155853
32.154327
32.153137
32.151520
32.150055
32.148895
32.147278
32.146118
32.144562
32.142914
32.163757
32.162628
32.161224
32.159698
32.158234
32.156769
32.155853
32.154266
32.153015
32.151398
32.172089
32.170563
32.169159
32.167664
32.166229
32.165131
32.163574
32.162384
32.161041
32.159515
32.179504
32.178223
32.177063
32.175568
32.174316
32.172943
32.171631
32.170441
32.168701
32.167450
32.187164
32.185730
32.184601
32.183167
32.181854
32.180511
32.179230
32.178192
32.176758
32.175568
32.194580
32.193420
32.192322
32.190918
32.189392
32.188232
32.186737
32.185638
32.184204
32.182831
32.201843
32.200745
32.199707
32.198334
32.197144
32.195526
32.194458
32.193176
32.191895
32.190613
32.208954
32.207672
32.206879
32.205414
32.204315
32.202911
32.201721
32.200562
32.199463
32.198029
32.215881
32.214783
32.213715
32.212311
32.211151
32.210175
32.208923
32.207672
32.206329
32.205048
32.146851
32.145416
32.144012
32.142517
32.141266
32.139893
32.138092
32.136871
32.135620
32.134155
32.155212
32.153870
32.152679
32.151001
32.149506
32.148315
32.147186
32.145172
32.143890
32.142548
32.163239
32.162079
32.160889
32.159088
32.158081
32.156525
32.155151
32.153687
32.152466
32.150940
32.171692
32.169952
32.168365
32.166962
32.165924
32.164398
32.163300
32.161652
32.160522
32.158905
32.178955
32.177765
32.176514
32.174927
32.173950
32.172119
32.171143
32.169525
32.168243
32.167084
32.186737
32.185455
32.184143
32.182556
32.181458
32.180054
32.178711
32.177368
32.176117
32.174957
32.194031
32.193024
32.191498
32.190582
32.189148
32.187958
32.186493
32.185486
32.184021
32.182526
32.201569
32.200195
32.199280
32.197815
32.196350
32.195190
32.194061
32.192688
32.191406
32.190125
32.208588
32.207184
32.206085
32.204895
32.203888
32.202637
32.201416
32.200165
32.198853
32.197510
32.215393
32.214355
32.213074
32.212006
32.211060
32.209625
32.208466
32.207520
32.205994
32.204926
32.146393
32.144836
32.143616
32.141998
32.140900
32.139282
32.137817
32.136047
32.134857
32.133209
32.154907
32.153381
32.151917
32.150421
32.149109
32.147644
32.146332
32.144623
32.143585
32.141907
32.162811
32.161560
32.160248
32.158600
32.157257
32.155975
32.154633
32.153168
32.151611
32.150177
32.170959
32.169373
32.167786
32.166412
32.165283
32.163849
32.162933
32.161407
32.159851
32.158386
32.178436
32.177460
32.175842
32.174713
32.173096
32.171997
32.170715
32.169220
32.167725
32.166534
32.186127
32.184906
32.183502
32.182404
32.180969
32.179565
32.178223
32.177094
32.175751
32.174286
32.193542
32.192383
32.191101
32.189667
32.188416
32.187561
32.186066
32.184631
32.183685
32.182007
32.201050
32.200043
32.198334
32.197479
32.195984
32.194611
32.193542
32.192017
32.191071
32.189606
32.208160
32.206970
32.205597
32.204803
32.203339
32.202057
32.200653
32.199829
32.198425
32.197113
32.214966
32.214081
32.212555
32.211578
32.210480
32.209045
32.207794
32.207031
32.205658
32.204468
32.145966
32.144409
32.142975
32.141357
32.140198
32.138611
32.137329
32.135681
32.134125
32.132629
32.154327
32.152954
32.151398
32.149994
32.148560
32.147125
32.145508
32.144196
32.142517
32.141449
32.162445
32.160950
32.159515
32.158173
32.156494
32.155640
32.153687
32.152618
32.151093
32.149536
32.170349
32.168762
32.167419
32.166077
32.164978
32.163330
32.162079
32.160919
32.159180
32.158142
32.177948
32.176636
32.175629
32.174164
32.172424
32.171539
32.170227
32.168549
32.167206
32.166046
32.185730
32.184326
32.182953
32.181824
32.180481
32.178864
32.178040
32.176361
32.175140
32.174011
32.193054
32.191925
32.190643
32.189545
32.188171
32.186859
32.185516
32.184326
32.182709
32.181549
32.200500
32.199432
32.198090
32.196777
32.195557
32.194092
32.192902
32.191650
32.190308
32.189331
32.207611
32.206421
32.205200
32.204315
32.202911
32.201721
32.200470
32.199280
32.198151
32.196320
32.214935
32.213501
32.212219
32.211151
32.210083
32.208771
32.207428
32.206024
32.205078
32.203918
32.145142
32.143921
32.142609
32.141205
32.139679
32.137909
32.136688
32.135223
32.133911
32.132141
32.153687
32.152435
32.150940
32.149139
32.147797
32.146698
32.144989
32.143372
32.142303
32.140808
32.161560
32.160553
32.158966
32.157806
32.156097
32.154755
32.153595
32.151978
32.150665
32.149109
32.169617
32.168243
32.167084
32.165710
32.164246
32.162933
32.161804
32.160400
32.158630
32.157532
32.177429
32.176270
32.174896
32.173706
32.172241
32.171021
32.169586
32.167969
32.166565
32.165314
32.185547
32.184082
32.182434
32.181122
32.179688
32.178436
32.177216
32.175873
32.175110
32.173309
32.192627
32.191467
32.190216
32.188843
32.187622
32.186340
32.185211
32.183777
32.182465
32.180969
32.200226
32.198730
32.197418
32.196045
32.194611
32.193909
32.192230
32.191040
32.189850
32.188568
32.207275
32.206024
32.204926
32.203613
32.202393
32.201355
32.200134
32.198639
32.197357
32.196228
32.214233
32.213257
32.211639
32.210541
32.209473
32.208221
32.207062
32.205750
32.204651
32.203644
32.144470
32.143555
32.141846
32.140350
32.138947
32.137421
32.136017
32.134613
32.133270
32.131592
32.153107
32.151703
32.150177
32.149048
32.147369
32.145996
32.144409
32.142914
32.141785
32.140228
32.161438
32.159882
32.158478
32.157074
32.155762
32.154205
32.153107
32.151337
32.150208
32.148499
32.169220
32.167664
32.166443
32.165161
32.163788
32.162262
32.161102
32.159851
32.158173
32.156555
32.177155
32.175720
32.174438
32.173004
32.171509
32.170410
32.169006
32.167358
32.166138
32.164948
32.184753
32.183533
32.181915
32.180664
32.179138
32.178253
32.176788
32.175568
32.174164
32.172791
32.192017
32.190979
32.189575
32.188324
32.187042
32.185669
32.184265
32.183136
32.181641
32.180511
32.199738
32.198425
32.197144
32.195618
32.194519
32.193176
32.192139
32.190796
32.189362
32.188171
32.206879
32.205414
32.204529
32.203156
32.201874
32.200745
32.199738
32.198029
32.196960
32.195648
32.213837
32.212402
32.211426
32.210358
32.208923
32.208038
32.206482
32.205322
32.204437
32.203186
32.144135
32.142426
32.141510
32.140076
32.138367
32.137054
32.135498
32.134125
32.132660
32.131073
32.152679
32.151093
32.149628
32.148407
32.147095
32.145477
32.144012
32.142670
32.141235
32.139648
32.160889
32.159149
32.158112
32.156555
32.155182
32.153625
32.152618
32.150940
32.149353
32.147919
32.168579
32.167175
32.165863
32.164337
32.163361
32.161804
32.160645
32.158844
32.157654
32.156281
32.176361
32.175262
32.174042
32.172516
32.171234
32.169739
32.168396
32.167023
32.165619
32.164459
32.184265
32.182648
32.181610
32.180176
32.178741
32.177765
32.176361
32.174957
32.173767
32.172333
32.191711
32.190338
32.189392
32.187897
32.186493
32.185242
32.184052
32.182556
32.181458
32.179840
32.199249
32.198059
32.196442
32.195343
32.194000
32.192719
32.191498
32.190491
32.188965
32.187744
32.206177
32.205170
32.204010
32.202728
32.201721
32.200043
32.198944
32.197662
32.196350
32.195099
32.213318
32.212128
32.211121
32.209656
32.208588
32.207306
32.206024
32.205109
32.203705
32.202484
32.143463
32.142334
32.140900
32.139465
32.137878
32.136383
32.134888
32.133392
32.131897
32.130737
32.152100
32.150696
32.148987
32.147522
32.146271
32.144806
32.143555
32.142090
32.140656
32.139221
32.160431
32.158508
32.157440
32.156158
32.154510
32.153320
32.151855
32.150238
32.149048
32.147552
32.167938
32.166656
32.165253
32.164093
32.162994
32.161438
32.160004
32.158569
32.157074
32.155792
32.175812
32.175018
32.173309
32.171997
32.170868
32.169250
32.167847
32.166656
32.165222
32.163879
32.183777
32.182373
32.181000
32.179657
32.178314
32.177307
32.175720
32.174713
32.173187
32.172028
32.191040
32.189941
32.188599
32.187317
32.186127
32.184723
32.183411
32.182312
32.180756
32.179565
32.198608
32.197540
32.196198
32.194733
32.193604
32.192108
32.190979
32.189758
32.188446
32.187103
32.205872
32.204529
32.203735
32.202209
32.200867
32.200043
32.198486
32.197021
32.195770
32.194519
32.212891
32.211700
32.210480
32.208984
32.208038
32.206696
32.205505
32.204590
32.203217
32.201874
32.142975
32.141724
32.140259
32.138733
32.137756
32.135864
32.134399
32.132935
32.131195
32.130035
32.151398
32.150177
32.148529
32.147095
32.145691
32.144196
32.142883
32.141602
32.140137
32.138397
32.159821
32.158112
32.156677
32.155609
32.154053
32.152771
32.151306
32.149780
32.148315
32.147003
32.167419
32.166077
32.164856
32.163422
32.162201
32.160858
32.159546
32.158325
32.156616
32.155151
32.175507
32.174225
32.172852
32.171326
32.170135
32.168640
32.167389
32.165894
32.164551
32.163422
32.183136
32.181732
32.180481
32.179016
32.178131
32.176666
32.175476
32.174164
32.172546
32.171509
32.190765
32.189178
32.188019
32.186859
32.185516
32.183990
32.182861
32.181671
32.180634
32.178894
32.198090
32.196808
32.195557
32.194275
32.192810
32.191895
32.190704
32.189392
32.187988
32.186676
32.205292
32.204498
32.203186
32.201752
32.200562
32.199219
32.198029
32.196442
32.195496
32.194031
32.212433
32.211304
32.210175
32.208893
32.207550
32.206085
32.205109
32.204071
32.202698
32.201538
32.142639
32.141174
32.139618
32.138123
32.136688
32.135162
32.133728
32.132477
32.130829
32.129150
32.150940
32.149323
32.147949
32.147034
32.145172
32.143494
32.142517
32.141235
32.139648
32.138245
32.158936
32.157654
32.156250
32.155151
32.153717
32.152222
32.150787
32.149261
32.147705
32.146545
32.166992
32.165619
32.164429
32.163086
32.161743
32.160248
32.158966
32.157532
32.156464
32.154877
32.174957
32.173737
32.172302
32.171204
32.169403
32.168182
32.166565
32.165466
32.164307
32.162872
32.182526
32.181458
32.179901
32.178589
32.177460
32.176208
32.174896
32.173340
32.172272
32.170868
32.190430
32.188873
32.187714
32.186340
32.185150
32.183899
32.182404
32.181030
32.179779
32.178406
32.197693
32.196320
32.195007
32.194000
32.192566
32.191467
32.190094
32.188629
32.187683
32.186157
32.204987
32.203796
32.202515
32.201202
32.199951
32.198792
32.197418
32.196075
32.194672
32.193512
32.211670
32.210754
32.209717
32.208344
32.207306
32.205811
32.204712
32.203613
32.201996
32.200989

SCALARS Alpha float 1
LOOKUP_TABLE default
-0.234237
-0.234240
-0.234247
-0.234251
-0.234258
-0.234262
-0.234268
-0.234274
-0.234278
-0.234284
-0.234207
-0.234212
-0.234214
-0.234220
-0.234227
-0.234233
-0.234238
-0.234242
-0.234248
-0.234252
-0.234176
-0.234179
-0.234185
-0.234190
-0.234196
-0.234202
-0.234206
-0.234213
-0.234217
-0.234222
-0.234146
-0.234152
-0.234158
-0.234161
-0.234166
-0.234171
-0.234177
-0.234183
-0.234186
-0.234193
-0.234120
-0.234124
-0.234128
-0.234135
-0.234138
-0.234142
-0.234149
-0.234153
-0.234156
-0.234163
-0.234092
-0.234096
-0.234099
-0.234105
-0.234109
-0.234113
-0.234120
-0.234124
-0.234130
-0.234134
-0.234064
-0.234066
-0.234073
-0.234075
-0.234080
-0.234086
-0.234091
-0.234096
-0.234101
-0.234105
-0.234035
-0.234040
-0.234043
-0.234051
-0.234054
-0.234060
-0.234062
-0.234066
-0.234073
-0.234076
-0.234008
-0.234012
-0.234017
-0.234021
-0.234027
-0.234030
-0.234036
-0.234039
-0.234046
-0.234051
-0.233982
-0.233986
-0.233993
-0.233996
-0.234000
-0.234006
-0.234009
-0.234014
-0.234018
-0.234022
-0.234237
-0.234243
-0.234248
-0.234254
-0.234260
-0.234264
-0.234269
-0.234274
-0.234280
-0.234288
-0.234206
-0.234211
-0.234217
-0.234223
-0.234229
-0.234235
-0.234239
-0.234244
-0.234251
-0.234255
-0.234179
-0.234181
-0.234187
-0.234192
-0.234198
-0.234203
-0.234207
-0.234214
-0.234217
-0.234224
-0.234150
-0.234154
-0.234158
-0.234163
-0.234169
-0.234175
-0.234179
-0.234184
-0.234188
-0.234192
-0.234120
-0.234124
-0.234129
-0.234134
-0.234141
-0.234147
-0.234151
-0.234158
-0.234160
-0.234167
-0.234092
-0.234098
-0.234103
-0.234107
-0.234112
-0.234115
-0.234121
-0.234125
-0.234130
-0.234135
-0.234065
-0.234069
-0.234074
-0.234080
-0.234084
-0.234090
-0.234095
-0.234098
-0.234101
-0.234109
-0.234038
-0.234042
-0.234047
-0.234050
-0.234057
-0.234061
-0.234064
-0.234069
-0.234075
-0.234079
-0.234010
-0.234014
-0.234020
-0.234024
-0.234028
-0.234033
-0.234037
-0.234043
-0.234048
-0.234053
-0.233984
-0.233990
-0.233994
-0.233998
-0.234003
-0.234006
-0.234010
-0.234015
-0.234020
-0.234023
-0.234240
-0.234245
-0.234251
-0.234257
-0.234261
-0.234266
-0.234272
-0.234277
-0.234285
-0.234287
-0.234210
-0.234216
-0.234222
-0.234226
-0.234230
-0.234236
-0.234241
-0.234246
-0.234252
-0.234258
-0.234179
-0.234184
-0.234190
-0.234196
-0.234200
-0.234206
-0.234212
-0.234216
-0.234221
-0.234226
-0.234151
-0.234155
-0.234161
-0.234168
-0.234171
-0.234176
-0.234180
-0.234184
-0.234189
-0.234194
-0.234122
-0.234126
-0.234133
-0.234138
-0.234143
-0.234148
-0.234152
-0.234155
-0.234162
-0.234167
-0.234096
-0.234099
-0.234103
-0.234108
-0.234113
-0.234119
-0.234124
-0.234127
-0.234132
-0.234137
-0.234068
-0.234071
-0.234075
-0.234082
-0.234084
-0.234090
-0.234094
-0.234099
-0.234102
-0.234110
-0.234037
-0.234045
-0.234048
-0.234053
-0.234060
-0.234063
-0.234068
-0.234070
-0.234076
-0.234080
-0.234012
-0.234017
-0.234021
-0.234024
-0.234030
-0.234035
-0.234040
-0.234044
-0.234049
-0.234053
-0.233986
-0.233990
-0.233995
-0.234000
-0.234004
-0.234008
-0.234012
-0.234016
-0.234021
-0.234027
-0.234242
-0.234247
-0.234251
-0.234259
-0.234265
-0.234269
-0.234276
-0.234280
-0.234284
-0.234291
-0.234211
-0.234217
-0.234222
-0.234228
-0.234234
-0.234238
-0.234243
-0.234249
-0.234256
-0.234259
-0.234182
-0.234186
-0.234192
-0.234197
-0.234203
-0.234207
-0.234213
-0.234217
-0.234224
-0.234229
-0.234154
-0.234156
-0.234163
-0.234166
-0.234173
-0.234179
-0.234183
-0.234186
-0.234191
-0.234197
-0.234126
-0.234129
-0.234134
-0.234139
-0.234144
-0.234148
-0.234155
-0.234157
-0.234163
-0.234168
-0.234097
-0.234101
-0.234106
-0.234111
-0.234115
-0.234121
-0.234123
-0.234130
-0.234134
-0.234140
-0.234067
-0.234073
-0.234076
-0.234082
-0.234087
-0.234092
-0.234098
-0.234103
-0.234105
-0.234112
-0.234040
-0.234045
-0.234050
-0.234056
-0.234061
-0.234065
-0.234068
-0.234074
-0.234078
-0.234084
-0.234013
-0.234018
-0.234021
-0.234026
-0.234033
-0.234037
-0.234041
-0.234047
-0.234051
-0.234055
-0.233988
-0.233993
-0.233997
-0.234002
-0.234004
-0.234009
-0.234015
-0.234018
-0.234023
-0.234028
-0.234243
-0.234251
-0.234256
-0.234262
-0.234265
-0.234272
-0.234276
-0.234282
-0.234288
-0.234292
-0.234213
-0.234219
-0.234224
-0.234231
-0.234234
-0.234240
-0.234246
-0.234251
-0.234256
-0.234261
-0.234184
-0.234188
-0.234193
-0.234198
-0.234203
-0.234209
-0.234214
-0.234219
-0.234224
-0.234230
-0.234156
-0.234160
-0.234166
-0.234169
-0.234174
-0.234179
-0.234184
-0.234188
-0.234194
-0.234199
-0.234126
-0.234131
-0.234135
-0.234141
-0.234145
-0.234150
-0.234156
-0.234160
-0.234164
-0.234170
-0.234097
-0.234101
-0.234108
-0.234112
-0.234117
-0.234123
-0.234127
-0.234134
-0.234136
-0.234142
-0.234069
-0.234075
-0.234079
-0.234085
-0.234090
-0.234094
-0.234097
-0.234104
-0.234109
-0.234115
-0.234043
-0.234049
-0.234052
-0.234057
-0.234060
-0.234066
-0.234072
-0.234076
-0.234079
-0.234085
-0.234016
-0.234021
-0.234023
-0.234030
-0.234033
-0.234038
-0.234043
-0.234047
-0.234052
-0.234059
-0.233987
-0.233994
-0.233999
-0.234004
-0.234007
-0.234012
-0.234014
-0.234021
-0.234025
-0.234030
-0.234247
-0.234251
-0.234258
-0.234262
-0.234268
-0.234274
-0.234278
-0.234285
-0.234288
-0.234294
-0.234215
-0.234223
-0.234226
-0.234231
-0.234237
-0.234242
-0.234247
-0.234253
-0.234260
-0.234264
-0.234185
-0.234190
-0.234195
-0.234200
-0.234207
-0.234212
-0.234215
-0.234221
-0.234228
-0.234232
-0.234154
-0.234162
-0.234168
-0.234170
-0.234176
-0.234182
-0.234185
-0.234190
-0.234196
-0.234202
-0.234127
-0.234132
-0.234137
-0.234142
-0.234147
-0.234155
-0.234157
-0.234163
-0.234168
-0.234172
-0.234098
-0.234102
-0.234110
-0.234114
-0.234120
-0.234125
-0.234129
-0.234134
-0.234139
-0.234142
-0.234071
-0.234075
-0.234081
-0.234087
-0.234092
-0.234095
-0.234100
-0.234106
-0.234109
-0.234115
-0.234044
-0.234049
-0.234052
-0.234058
-0.234063
-0.234067
-0.234072
-0.234076
-0.234081
-0.234087
-0.234017
-0.234021
-0.234027
-0.234030
-0.234038
-0.234041
-0.234043
-0.234051
-0.234055
-0.234060
-0.233993
-0.233995
-0.234000
-0.234004
-0.234008
-0.234013
-0.234018
-0.234021
-0.234028
-0.234030
-0.234249
-0.234254
-0.234260
-0.234265
-0.234272
-0.234275
-0.234280
-0.234287
-0.234291
-0.234297
-0.234217
-0.234223
-0.234229
-0.234234
-0.234238
-0.234242
-0.234250
-0.234256
-0.234261
-0.234265
-0.234186
-0.234191
-0.234196
-0.234203
-0.234207
-0.234214
-0.234217
-0.234224
-0.234230
-0.234235
-0.234159
-0.234163
-0.234169
-0.234175
-0.234179
-0.234183
-0.234187
-0.234192
-0.234199
-0.234203
-0.234131
-0.234134
-0.234140
-0.234145
-0.234149
-0.234155
-0.234160
-0.234164
-0.234167
-0.234173
-0.234102
-0.234107
-0.234112
-0.234116
-0.234122
-0.234125
-0.234130
-0.234136
-0.234141
-0.234147
-0.234074
-0.234078
-0.234084
-0.234090
-0.234094
-0.234099
-0.234102
-0.234107
-0.234112
-0.234117
-0.234047
-0.234051
-0.234056
-0.234062
-0.234064
-0.234070
-0.234075
-0.234079
-0.234083
-0.234089
-0.234018
-0.234023
-0.234028
-0.234032
-0.234037
-0.234042
-0.234048
-0.234052
-0.234056
-0.234061
-0.233993
-0.233999
-0.234003
-0.234005
-0.234011
-0.234015
-0.234020
-0.234022
-0.234029
-0.234034
-0.234251
-0.234255
-0.234262
-0.234264
-0.234273
-0.234276
-0.234283
-0.234287
-0.234294
-0.234300
-0.234220
-0.234224
-0.234230
-0.234237
-0.234239
-0.234247
-0.234251
-0.234256
-0.234263
-0.234266
-0.234189
-0.234195
-0.234200
-0.234205
-0.234210
-0.234214
-0.234219
-0.234226
-0.234231
-0.234236
-0.234161
-0.234164
-0.234169
-0.234175
-0.234179
-0.234185
-0.234190
-0.234194
-0.234201
-0.234205
-0.234133
-0.234137
-0.234141
-0.234145
-0.234151
-0.234156
-0.234160
-0.234167
-0.234171
-0.234176
-0.234104
-0.234109
-0.234115
-0.234118
-0.234124
-0.234127
-0.234132
-0.234137
-0.234143
-0.234147
-0.234075
-0.234080
-0.234084
-0.234090
-0.234095
-0.234099
-0.234104
-0.234108
-0.234114
-0.234119
-0.234047
-0.234053
-0.234058
-0.234062
-0.234067
-0.234070
-0.234075
-0.234082
-0.234085
-0.234093
-0.234021
-0.234025
-0.234031
-0.234035
-0.234039
-0.234043
-0.234050
-0.234053
-0.234059
-0.234063
-0.233993
-0.234000
-0.234004
-0.234008
-0.234013
-0.234016
-0.234023
-0.234027
-0.234031
-0.234035
-0.234252
-0.234259
-0.234264
-0.234269
-0.234275
-0.234277
-0.234284
-0.234291
-0.234297
-0.234302
-0.234222
-0.234227
-0.234233
-0.234239
-0.234242
-0.234248
-0.234252
-0.234259
-0.234263
-0.234269
-0.234190
-0.234196
-0.234201
-0.234207
-0.234212
-0.234217
-0.234222
-0.234228
-0.234233
-0.234237
-0.234164
-0.234166
-0.234172
-0.234176
-0.234184
-0.234186
-0.234190
-0.234196
-0.234204
-0.234206
-0.234134
-0.234139
-0.234143
-0.234150
-0.234152
-0.234158
-0.234161
-0.234169
-0.234175
-0.234179
-0.234106
-0.234110
-0.234115
-0.234120
-0.234122
-0.234129
-0.234135
-0.234137
-0.234145
-0.234150
-0.234076
-0.234081
-0.234087
-0.234093
-0.234098
-0.234100
-0.234106
-0.234110
-0.234114
-0.234119
-0.234051
-0.234055
-0.234060
-0.234065
-0.234068
-0.234074
-0.234078
-0.234082
-0.234089
-0.234093
-0.234020
-0.234027
-0.234029
-0.234037
-0.234042
-0.234046
-0.234051
-0.234056
-0.234059
-0.234064
-0.233996
-0.234000
-0.234005
-0.234009
-0.234013
-0.234019
-0.234022
-0.234028
-0.234032
-0.234038
-0.234256
-0.234261
-0.234266
-0.234270
-0.234275
-0.234280
-0.234286
-0.234294
-0.234298
-0.234302
-0.234224
-0.234229
-0.234236
-0.234241
-0.234246
-0.234250
-0.234256
-0.234260
-0.234265
-0.234272
-0.234192
-0.234199
-0.234205
-0.234208
-0.234213
-0.234219
-0.234222
-0.234230
-0.234235
-0.234241
-0.234164
-0.234167
-0.234174
-0.234181
-0.234184
-0.234189
-0.234191
-0.234199
-0.234205
-0.234209
-0.234136
-0.234141
-0.234145
-0.234150
-0.234155
-0.234161
-0.234164
-0.234168
-0.234176
-0.234180
-0.234107
-0.234112
-0.234116
-0.234122
-0.234126
-0.234130
-0.234137
-0.234143
-0.234147
-0.234150
-0.234079
-0.234083
-0.234090
-0.234093
-0.234099
-0.234102
-0.234108
-0.234113
-0.234117
-0.234124
-0.234053
-0.234057
-0.234061
-0.234065
-0.234069
-0.234075
-0.234080
-0.234085
-0.234089
-0.234097
-0.234024
-0.234029
-0.234033
-0.234037
-0.234042
-0.234049
-0.234052
-0.234057
-0.234060