# vtk DataFile Version 3.0
PINN prediction t=5958.62060546875
ASCII
DATASET UNSTRUCTURED_GRID
POINTS 1000 float
0.000000 0.000000 0.000000
0.000000 0.000000 0.044444
0.000000 0.000000 0.088889
0.000000 0.000000 0.133333
0.000000 0.000000 0.177778
0.000000 0.000000 0.222222
0.000000 0.000000 0.266667
0.000000 0.000000 0.311111
0.000000 0.000000 0.355556
0.000000 0.000000 0.400000
0.000000 0.088889 0.000000
0.000000 0.088889 0.044444
0.000000 0.088889 0.088889
0.000000 0.088889 0.133333
0.000000 0.088889 0.177778
0.000000 0.088889 0.222222
0.000000 0.088889 0.266667
0.000000 0.088889 0.311111
0.000000 0.088889 0.355556
0.000000 0.088889 0.400000
0.000000 0.177778 0.000000
0.000000 0.177778 0.044444
0.000000 0.177778 0.088889
0.000000 0.177778 0.133333
0.000000 0.177778 0.177778
0.000000 0.177778 0.222222
0.000000 0.177778 0.266667
0.000000 0.177778 0.311111
0.000000 0.177778 0.355556
0.000000 0.177778 0.400000
0.000000 0.266667 0.000000
0.000000 0.266667 0.044444
0.000000 0.266667 0.088889
0.000000 0.266667 0.133333
0.000000 0.266667 0.177778
0.000000 0.266667 0.222222
0.000000 0.266667 0.266667
0.000000 0.266667 0.311111
0.000000 0.266667 0.355556
0.000000 0.266667 0.400000
0.000000 0.355556 0.000000
0.000000 0.355556 0.044444
0.000000 0.355556 0.088889
0.000000 0.355556 0.133333
0.000000 0.355556 0.177778
0.000000 0.355556 0.222222
0.000000 0.355556 0.266667
0.000000 0.355556 0.311111
0.000000 0.355556 0.355556
0.000000 0.355556 0.400000
0.000000 0.444444 0.000000
0.000000 0.444444 0.044444
0.000000 0.444444 0.088889
0.000000 0.444444 0.133333
0.000000 0.444444 0.177778
0.000000 0.444444 0.222222
0.000000 0.444444 0.266667
0.000000 0.444444 0.311111
0.000000 0.444444 0.355556
0.000000 0.444444 0.400000
0.000000 0.533333 0.000000
0.000000 0.533333 0.044444
0.000000 0.533333 0.088889
0.000000 0.533333 0.133333
0.000000 0.533333 0.177778
0.000000 0.533333 0.222222
0.000000 0.533333 0.266667
0.000000 0.533333 0.311111
0.000000 0.533333 0.355556
0.000000 0.533333 0.400000
0.000000 0.622222 0.000000
0.000000 0.622222 0.044444
0.000000 0.622222 0.088889
0.000000 0.622222 0.133333
0.000000 0.622222 0.177778
0.000000 0.622222 0.222222
0.000000 0.622222 0.266667
0.000000 0.622222 0.311111
0.000000 0.622222 0.355556
0.000000 0.622222 0.400000
0.000000 0.711111 0.000000
0.000000 0.711111 0.044444
0.000000 0.711111 0.088889
0.000000 0.711111 0.133333
0.000000 0.711111 0.177778
0.000000 0.711111 0.222222
0.000000 0.711111 0.266667
0.000000 0.711111 0.311111
0.000000 0.711111 0.355556
0.000000 0.711111 0.400000
0.000000 0.800000 0.000000
0.000000 0.800000 0.044444
0.000000 0.800000 0.088889
0.000000 0.800000 0.133333
0.000000 0.800000 0.177778
0.000000 0.800000 0.222222
0.000000 0.800000 0.266667
0.000000 0.800000 0.311111
0.000000 0.800000 0.355556
0.000000 0.800000 0.400000
0.044444 0.000000 0.000000
0.044444 0.000000 0.044444
0.044444 0.000000 0.088889
0.044444 0.000000 0.133333
0.044444 0.000000 0.177778
0.044444 0.000000 0.222222
0.044444 0.000000 0.266667
0.044444 0.000000 0.311111
0.044444 0.000000 0.355556
0.044444 0.000000 0.400000
0.044444 0.088889 0.000000
0.044444 0.088889 0.044444
0.044444 0.088889 0.088889
0.044444 0.088889 0.133333
0.044444 0.088889 0.177778
0.044444 0.088889 0.222222
0.044444 0.088889 0.266667
0.044444 0.088889 0.311111
0.044444 0.088889 0.355556
0.044444 0.088889 0.400000
0.044444 0.177778 0.000000
0.044444 0.177778 0.044444
0.044444 0.177778 0.088889
0.044444 0.177778 0.133333
0.044444 0.177778 0.177778
0.044444 0.177778 0.222222
0.044444 0.177778 0.266667
0.044444 0.177778 0.311111
0.044444 0.177778 0.355556
0.044444 0.177778 0.400000
0.044444 0.266667 0.000000
0.044444 0.266667 0.044444
0.044444 0.266667 0.088889
0.044444 0.266667 0.133333
0.044444 0.266667 0.177778
0.044444 0.266667 0.222222
0.044444 0.266667 0.266667
0.044444 0.266667 0.311111
0.044444 0.266667 0.355556
0.044444 0.266667 0.400000
0.044444 0.355556 0.000000
0.044444 0.355556 0.044444
0.044444 0.355556 0.088889
0.044444 0.355556 0.133333
0.044444 0.355556 0.177778
0.044444 0.355556 0.222222
0.044444 0.355556 0.266667
0.044444 0.355556 0.311111
0.044444 0.355556 0.355556
0.044444 0.355556 0.400000
0.044444 0.444444 0.000000
0.044444 0.444444 0.044444
0.044444 0.444444 0.088889
0.044444 0.444444 0.133333
0.044444 0.444444 0.177778
0.044444 0.444444 0.222222
0.044444 0.444444 0.266667
0.044444 0.444444 0.311111
0.044444 0.444444 0.355556
0.044444 0.444444 0.400000
0.044444 0.533333 0.000000
0.044444 0.533333 0.044444
0.044444 0.533333 0.088889
0.044444 0.533333 0.133333
0.044444 0.533333 0.177778
0.044444 0.533333 0.222222
0.044444 0.533333 0.266667
0.044444 0.533333 0.311111
0.044444 0.533333 0.355556
0.044444 0.533333 0.400000
0.044444 0.622222 0.000000
0.044444 0.622222 0.044444
0.044444 0.622222 0.088889
0.044444 0.622222 0.133333
0.044444 0.622222 0.177778
0.044444 0.622222 0.222222
0.044444 0.622222 0.266667
0.044444 0.622222 0.311111
0.044444 0.622222 0.355556
0.044444 0.622222 0.400000
0.044444 0.711111 0.000000
0.044444 0.711111 0.044444
0.044444 0.711111 0.088889
0.044444 0.711111 0.133333
0.044444 0.711111 0.177778
0.044444 0.711111 0.222222
0.044444 0.711111 0.266667
0.044444 0.711111 0.311111
0.044444 0.711111 0.355556
0.044444 0.711111 0.400000
0.044444 0.800000 0.000000
0.044444 0.800000 0.044444
0.044444 0.800000 0.088889
0.044444 0.800000 0.133333
0.044444 0.800000 0.177778
0.044444 0.800000 0.222222
0.044444 0.800000 0.266667
0.044444 0.800000 0.311111
0.044444 0.800000 0.355556
0.044444 0.800000 0.400000
0.088889 0.000000 0.000000
0.088889 0.000000 0.044444
0.088889 0.000000 0.088889
0.088889 0.000000 0.133333
0.088889 0.000000 0.177778
0.088889 0.000000 0.222222
0.088889 0.000000 0.266667
0.088889 0.000000 0.311111
0.088889 0.000000 0.355556
0.088889 0.000000 0.400000
0.088889 0.088889 0.000000
0.088889 0.088889 0.044444
0.088889 0.088889 0.088889
0.088889 0.088889 0.133333
0.088889 0.088889 0.177778
0.088889 0.088889 0.222222
0.088889 0.088889 0.266667
0.088889 0.088889 0.311111
0.088889 0.088889 0.355556
0.088889 0.088889 0.400000
0.088889 0.177778 0.000000
0.088889 0.177778 0.044444
0.088889 0.177778 0.088889
0.088889 0.177778 0.133333
0.088889 0.177778 0.177778
0.088889 0.177778 0.222222
0.088889 0.177778 0.266667
0.088889 0.177778 0.311111
0.088889 0.177778 0.355556
0.088889 0.177778 0.400000
0.088889 0.266667 0.000000
0.088889 0.266667 0.044444
0.088889 0.266667 0.088889
0.088889 0.266667 0.133333
0.088889 0.266667 0.177778
0.088889 0.266667 0.222222
0.088889 0.266667 0.266667
0.088889 0.266667 0.311111
0.088889 0.266667 0.355556
0.088889 0.266667 0.400000
0.088889 0.355556 0.000000
0.088889 0.355556 0.044444
0.088889 0.355556 0.088889
0.088889 0.355556 0.133333
0.088889 0.355556 0.177778
0.088889 0.355556 0.222222
0.088889 0.355556 0.266667
0.088889 0.355556 0.311111
0.088889 0.355556 0.355556
0.088889 0.355556 0.400000
0.088889 0.444444 0.000000
0.088889 0.444444 0.044444
0.088889 0.444444 0.088889
0.088889 0.444444 0.133333
0.088889 0.444444 0.177778
0.088889 0.444444 0.222222
0.088889 0.444444 0.266667
0.088889 0.444444 0.311111
0.088889 0.444444 0.355556
0.088889 0.444444 0.400000
0.088889 0.533333 0.000000
0.088889 0.533333 0.044444
0.088889 0.533333 0.088889
0.088889 0.533333 0.133333
0.088889 0.533333 0.177778
0.088889 0.533333 0.222222
0.088889 0.533333 0.266667
0.088889 0.533333 0.311111
0.088889 0.533333 0.355556
0.088889 0.533333 0.400000
0.088889 0.622222 0.000000
0.088889 0.622222 0.044444
0.088889 0.622222 0.088889
0.088889 0.622222 0.133333
0.088889 0.622222 0.177778
0.088889 0.622222 0.222222
0.088889 0.622222 0.266667
0.088889 0.622222 0.311111
0.088889 0.622222 0.355556
0.088889 0.622222 0.400000
0.088889 0.711111 0.000000
0.088889 0.711111 0.044444
0.088889 0.711111 0.088889
0.088889 0.711111 0.133333
0.088889 0.711111 0.177778
0.088889 0.711111 0.222222
0.088889 0.711111 0.266667
0.088889 0.711111 0.311111
0.088889 0.711111 0.355556
0.088889 0.711111 0.400000
0.088889 0.800000 0.000000
0.088889 0.800000 0.044444
0.088889 0.800000 0.088889
0.088889 0.800000 0.133333
0.088889 0.800000 0.177778
0.088889 0.800000 0.222222
0.088889 0.800000 0.266667
0.088889 0.800000 0.311111
0.088889 0.800000 0.355556
0.088889 0.800000 0.400000
0.133333 0.000000 0.000000
0.133333 0.000000 0.044444
0.133333 0.000000 0.088889
0.133333 0.000000 0.133333
0.133333 0.000000 0.177778
0.133333 0.000000 0.222222
0.133333 0.000000 0.266667
0.133333 0.000000 0.311111
0.133333 0.000000 0.355556
0.133333 0.000000 0.400000
0.133333 0.088889 0.000000
0.133333 0.088889 0.044444
0.133333 0.088889 0.088889
0.133333 0.088889 0.133333
0.133333 0.088889 0.177778
0.133333 0.088889 0.222222
0.133333 0.088889 0.266667
0.133333 0.088889 0.311111
0.133333 0.088889 0.355556
0.133333 0.088889 0.400000
0.133333 0.177778 0.000000
0.133333 0.177778 0.044444
0.133333 0.177778 0.088889
0.133333 0.177778 0.133333
0.133333 0.177778 0.177778
0.133333 0.177778 0.222222
0.133333 0.177778 0.266667
0.133333 0.177778 0.311111
0.133333 0.177778 0.355556
0.133333 0.177778 0.400000
0.133333 0.266667 0.000000
0.133333 0.266667 0.044444
0.133333 0.266667 0.088889
0.133333 0.266667 0.133333
0.133333 0.266667 0.177778
0.133333 0.266667 0.222222
0.133333 0.266667 0.266667
0.133333 0.266667 0.311111
0.133333 0.266667 0.355556
0.133333 0.266667 0.400000
0.133333 0.355556 0.000000
0.133333 0.355556 0.044444
0.133333 0.355556 0.088889
0.133333 0.355556 0.133333
0.133333 0.355556 0.177778
0.133333 0.355556 0.222222
0.133333 0.355556 0.266667
0.133333 0.355556 0.311111
0.133333 0.355556 0.355556
0.133333 0.355556 0.400000
0.133333 0.444444 0.000000
0.133333 0.444444 0.044444
0.133333 0.444444 0.088889
0.133333 0.444444 0.133333
0.133333 0.444444 0.177778
0.133333 0.444444 0.222222
0.133333 0.444444 0.266667
0.133333 0.444444 0.311111
0.133333 0.444444 0.355556
0.133333 0.444444 0.400000
0.133333 0.533333 0.000000
0.133333 0.533333 0.044444
0.133333 0.533333 0.088889
0.133333 0.533333 0.133333
0.133333 0.533333 0.177778
0.133333 0.533333 0.222222
[...]
POINT_DATA 1000
SCALARS Temperature float 1
LOOKUP_TABLE default
31.234894
31.230591
31.226257
31.222015
31.217651
31.213257
31.208740
31.204559
31.200134
31.195709
31.259979
31.255646
31.251740
31.247253
31.242889
31.238556
31.234192
31.230133
31.225525
31.221161
31.284546
31.280426
31.276215
31.271942
31.267578
31.263641
31.259583
31.255280
31.250824
31.246521
31.308868
31.304779
31.300507
31.296417
31.292114
31.287903
31.283722
31.279785
31.275665
31.271454
31.332642
31.328644
31.324646
31.320099
31.316589
31.312317
31.308228
31.304199
31.299957
31.295807
31.355804
31.351990
31.347931
31.343933
31.339844
31.336243
31.331940
31.327637
31.323730
31.319397
31.379181
31.374786
31.370758
31.367188
31.363251
31.359131
31.355194
31.351227
31.347382
31.343506
31.401611
31.397491
31.393585
31.389954
31.386078
31.382019
31.378448
31.374054
31.370544
31.366516
31.423553
31.419891
31.416046
31.412415
31.408508
31.404510
31.400909
31.396881
31.393036
31.389252
31.445557
31.441864
31.437988
31.434448
31.430389
31.426697
31.423157
31.419281
31.415649
31.411865
31.233276
31.228943
31.224670
31.219910
31.215820
31.211548
31.207275
31.202637
31.198120
31.194000
31.258270
31.253784
31.249878
31.245514
31.241302
31.237030
31.232635
31.228149
31.223724
31.219482
31.283051
31.278870
31.274628
31.270416
31.265991
31.262177
31.257660
31.253418
31.248901
31.245026
31.307037
31.302765
31.298767
31.294861
31.290924
31.286377
31.282471
31.278137
31.274048
31.269745
31.330963
31.326935
31.322937
31.318939
31.314728
31.310822
31.306519
31.302490
31.298248
31.294128
31.354492
31.350281
31.346558
31.342560
31.338043
31.334381
31.330292
31.326050
31.322357
31.318024
31.377289
31.373291
31.369598
31.365662
31.361786
31.357727
31.353699
31.349823
31.345642
31.341797
31.400024
31.396118
31.392090
31.388550
31.384491
31.380615
31.376923
31.372894
31.368652
31.365173
31.422119
31.418304
31.414490
31.410858
31.406860
31.402985
31.399445
31.395477
31.391449
31.387634
31.444122
31.440155
31.436554
31.432678
31.428986
31.425568
31.421539
31.417938
31.413666
31.410095
31.231628
31.227264
31.222778
31.218658
31.214355
31.209686
31.205383
31.200989
31.196594
31.191895
31.256683
31.252289
31.248199
31.243896
31.239594
31.235199
31.230927
31.226318
31.222229
31.217865
31.281158
31.277222
31.273102
31.268616
31.264465
31.260712
31.255707
31.252075
31.247589
31.243317
31.305389
31.301422
31.297363
31.293213
31.288971
31.284943
31.280762
31.276489
31.272491
31.267975
31.329254
31.325378
31.321106
31.317322
31.313141
31.309174
31.304962
31.300720
31.296539
31.292450
31.352692
31.348969
31.344727
31.340973
31.336975
31.332825
31.328888
31.324829
31.320648
31.316681
31.375824
31.371857
31.368103
31.364197
31.360260
31.355865
31.352051
31.348358
31.343872
31.340607
31.398407
31.394440
31.390717
31.386902
31.382996
31.379150
31.375275
31.371277
31.367279
31.363159
31.420746
31.416809
31.413300
31.409698
31.405457
31.401703
31.397705
31.394196
31.389954
31.386383
31.442444
31.438751
31.434998
31.431335
31.427429
31.423859
31.420166
31.416443
31.412872
31.408722
31.230011
31.225555
31.221008
31.216461
31.212585
31.207977
31.203674
31.199280
31.195007
31.190491
31.255219
31.250763
31.246429
31.242401
31.237976
31.233734
31.229156
31.225067
31.220337
31.216278
31.279907
31.275604
31.271423
31.267120
31.262604
31.258606
31.254272
31.250183
31.245941
31.241608
31.303925
31.299927
31.295959
31.291382
31.287415
31.283264
31.279083
31.275085
31.270813
31.266357
31.327667
31.323700
31.319336
31.315369
31.311646
31.307159
31.303375
31.299194
31.295166
31.291077
31.351196
31.347473
31.343475
31.339294
31.335297
31.331390
31.327271
31.323212
31.319275
31.314667
31.374054
31.370544
31.366608
31.362488
31.358582
31.354706
31.350708
31.346588
31.342651
31.338593
31.396790
31.392975
31.389435
31.385376
31.381622
31.377594
31.373749
31.369843
31.366089
31.362061
31.419281
31.415588
31.411926
31.408020
31.403961
31.400055
31.396515
31.392517
31.388702
31.384857
31.440857
31.437531
31.433533
31.429840
31.426056
31.422577
31.418823
31.414948
31.411041
31.407379
31.228302
31.223755
31.219543
31.215210
31.210846
31.206421
31.201904
31.197571
31.193176
31.188904
31.253387
31.249115
31.244965
31.240356
31.236206
31.232239
31.227661
31.223206
31.218903
31.214447
31.278198
31.274048
31.269592
31.265686
31.261292
31.256897
31.252472
31.248596
31.244080
31.239929
31.302490
31.298157
31.294189
31.290070
31.285645
31.281525
31.277527
31.272980
31.269012
31.264740
31.325928
31.322449
31.318176
31.314148
31.309967
31.305878
31.301483
31.297577
31.293427
31.289276
31.349823
31.345490
31.341858
31.337738
31.333862
31.329712
31.325836
31.321869
31.317749
31.313446
31.372955
31.368530
31.364929
31.360901
31.356903
31.353210
31.349182
31.345123
31.341309
31.337250
31.395508
31.391388
31.387543
31.383789
31.379974
31.376129
31.372375
31.368317
31.364349
31.360535
31.417938
31.413788
31.410065
31.406219
31.402466
31.398590
31.394928
31.391052
31.387054
31.383362
31.439758
31.436005
31.432220
31.428558
31.424774
31.420746
31.417236
31.413452
31.409210
31.405701
31.226379
31.222168
31.217926
31.213593
31.209137
31.204651
31.200531
31.195831
31.191345
31.187134
31.251984
31.247528
31.243225
31.238953
31.234528
31.230377
31.225861
31.221405
31.217102
31.212952
31.276306
31.272491
31.267792
31.263855
31.259674
31.255585
31.251160
31.246674
31.242737
31.238403
31.300842
31.296692
31.292419
31.288269
31.283997
31.279877
31.275879
31.271912
31.267181
31.263184
31.324646
31.320618
31.316620
31.312561
31.308502
31.304352
31.300262
31.296204
31.291901
31.287781
31.348358
31.343994
31.340485
31.336304
31.332581
31.328156
31.324310
31.319672
31.316376
31.311768
31.371277
31.367188
31.363312
31.359680
31.355286
31.351593
31.347748
31.343628
31.339600
31.335846
31.393982
31.389893
31.386292
31.382568
31.378845
31.374542
31.370789
31.366943
31.362762
31.359253
31.416382
31.412811
31.408691
31.404694
31.401154
31.397278
31.393616
31.389740
31.385681
31.382172
31.438232
31.434753
31.430878
31.427124
31.423370
31.419647
31.415558
31.411896
31.408173
31.404388
31.224823
31.220398
31.216370
31.211761
31.207214
31.202820
31.198700
31.194305
31.189606
31.185303
31.250183
31.245911
31.241547
31.237274
31.232910
31.228699
31.224426
31.219971
31.215393
31.211365
31.275055
31.270966
31.266357
31.262207
31.258087
31.253815
31.249573
31.244934
31.240753
31.236725
31.298981
31.295197
31.290955
31.286896
31.282532
31.278473
31.274231
31.270050
31.265625
31.261505
31.323242
31.319214
31.314758
31.311005
31.306793
31.302734
31.298767
31.294525
31.290375
31.285980
31.346619
31.342651
31.338501
31.334564
31.330719
31.326660
31.322754
31.318359
31.314301
31.310364
31.369904
31.366150
31.362030
31.357880
31.354034
31.350037
31.346069
31.342285
31.337921
31.334076
31.392517
31.388702
31.384766
31.380951
31.377106
31.372864
31.369202
31.365387
31.361481
31.357483
31.415070
31.410980
31.407257
31.403351
31.399597
31.395721
31.392090
31.388245
31.384186
31.380219
31.436890
31.432983
31.428986
31.425629
31.421875
31.418030
31.414246
31.410400
31.406494
31.402679
31.223328
31.218964
31.214539
31.209839
31.205658
31.201202
31.196777
31.192566
31.188141
31.183716
31.248383
31.244293
31.239838
31.235596
31.231201
31.226746
31.222717
31.217865
31.213898
31.209564
31.273163
31.268951
31.264679
31.260681
31.256409
31.252228
31.247955
31.243378
31.239166
31.234772
31.297699
31.293274
31.289337
31.285553
31.280975
31.276978
31.272675
31.268158
31.264221
31.260193
31.321777
31.317596
31.313477
31.309113
31.305115
31.301147
31.296906
31.292603
31.288544
31.284424
31.345215
31.341370
31.337250
31.333099
31.329041
31.324860
31.321014
31.316803
31.312836
31.308746
31.368286
31.364441
31.360321
31.356201
31.352173
31.348450
31.344452
31.340454
31.336365
31.332642
31.390991
31.386688
31.383087
31.379181
31.375580
31.371521
31.367645
31.363739
31.359833
31.355774
31.413574
31.409485
31.405487
31.401855
31.398132
31.394409
31.390472
31.386566
31.382690
31.378937
31.435364
31.431793
31.427765
31.424072
31.420288
31.416748
31.413116
31.408997
31.405334
31.401581
31.221497
31.217133
31.212891
31.208405
31.203888
31.199738
31.195190
31.190796
31.186371
31.181641
31.246674
31.242523
31.238495
31.233917
31.229584
31.225159
31.221008
31.216614
31.211945
31.207611
31.271759
31.267273
31.263092
31.259125
31.254730
31.250580
31.246216
31.242004
31.237610
31.233246
31.296082
31.292145
31.287781
31.283478
31.279480
31.275208
31.271088
31.266846
31.262604
31.258270
31.319855
31.316315
31.311859
31.307312
31.303711
31.299286
31.295380
31.291382
31.286896
31.282959
31.343597
31.339355
31.335724
31.331451
31.327423
31.323303
31.319275
31.315247
31.311218
31.307098
31.366943
31.362732
31.359161
31.354889
31.351257
31.347168
31.343018
31.338837
31.335052
31.330963
31.389587
31.385895
31.382141
31.377777
31.373901
31.370239
31.366302
31.362091
31.358215
31.354462
31.411865
31.408112
31.404236
31.400665
31.396515
31.392517
31.389069
31.384949
31.381256
31.377167
31.433990
31.430237
31.426270
31.422760
31.418945
31.415222
31.411407
31.407623
31.403503
31.400055
31.219910
31.215424
31.211304
31.206665
31.202118
31.198090
31.193756
31.189117
31.184479
31.180084
31.244904
31.240723
31.236694
31.232422
31.227966
31.223541
31.219269
31.214966
31.210236
31.206146
31.270020
31.265747
31.261597
31.257050
31.253052
31.248810
31.244690
31.240234
31.235992
31.231628
31.294525
31.290222
31.286011
31.282043
31.277954
31.273804
31.269470
31.265198
31.260773
31.256592
31.318359
31.314270
31.310364
31.306427
31.302277
31.297943
31.293732
31.289734
31.285461
31.281219
31.342194
31.337769
31.333862
31.329987
31.326111
31.321930
31.317993
31.313782
31.309601
31.305450
31.365356
31.361237
31.357483
31.353485
31.349579
31.345490
31.341431
31.337585
31.333405
31.329193
31.388123
31.384369
31.380157
31.376282
31.372589
31.368347
31.364685
31.360748
31.356415
31.352631
31.410461
31.406464
31.402649
31.399170
31.395142
31.391418
31.387146
31.383362
31.379669
31.375702
31.432617
31.428680
31.425110
31.421295
31.417450
31.413849
31.409637
31.406311
31.402252
31.398529

SCALARS Alpha float 1
LOOKUP_TABLE default
-0.237604
-0.237620
-0.237637
-0.237653
-0.237670
-0.237685
-0.237702
-0.237718
-0.237733
-0.237752
-0.237513
-0.237529
-0.237543
-0.237560
-0.237574
-0.237592
-0.237608
-0.237623
-0.237639
-0.237656
-0.237422
-0.237437
-0.237455
-0.237469
-0.237484
-0.237500
-0.237516
-0.237532
-0.237546
-0.237562
-0.237334
-0.237348
-0.237363
-0.237377
-0.237394
-0.237410
-0.237424
-0.237440
-0.237454
-0.237472
-0.237246
-0.237259
-0.237275
-0.237290
-0.237305
-0.237319
-0.237335
-0.237350
-0.237365
-0.237381
-0.237158
-0.237173
-0.237189
-0.237202
-0.237218
-0.237232
-0.237248
-0.237262
-0.237276
-0.237292
-0.237073
-0.237088
-0.237102
-0.237116
-0.237131
-0.237149
-0.237162
-0.237176
-0.237189
-0.237204
-0.236991
-0.237006
-0.237021
-0.237031
-0.237047
-0.237060
-0.237076
-0.237090
-0.237103
-0.237118
-0.236908
-0.236924
-0.236936
-0.236948
-0.236965
-0.236979
-0.236991
-0.237007
-0.237021
-0.237034
-0.236829
-0.236842
-0.236856
-0.236869
-0.236884
-0.236897
-0.236911
-0.236926
-0.236938
-0.236952
-0.237611
-0.237627
-0.237643
-0.237660
-0.237676
-0.237692
-0.237709
-0.237724
-0.237740
-0.237756
-0.237518
-0.237534
-0.237549
-0.237566
-0.237583
-0.237598
-0.237614
-0.237628
-0.237645
-0.237662
-0.237425
-0.237443
-0.237459
-0.237476
-0.237491
-0.237506
-0.237521
-0.237539
-0.237554
-0.237568
-0.237339
-0.237354
-0.237369
-0.237384
-0.237400
-0.237415
-0.237430
-0.237447
-0.237462
-0.237478
-0.237250
-0.237266
-0.237280
-0.237294
-0.237311
-0.237325
-0.237341
-0.237354
-0.237371
-0.237385
-0.237163
-0.237181
-0.237193
-0.237208
-0.237223
-0.237237
-0.237253
-0.237269
-0.237282
-0.237298
-0.237079
-0.237095
-0.237107
-0.237123
-0.237137
-0.237151
-0.237165
-0.237183
-0.237195
-0.237211
-0.236996
-0.237009
-0.237024
-0.237039
-0.237053
-0.237067
-0.237080
-0.237097
-0.237111
-0.237125
-0.236916
-0.236928
-0.236942
-0.236954
-0.236969
-0.236984
-0.236999
-0.237014
-0.237027
-0.237043
-0.236833
-0.236847
-0.236861
-0.236874
-0.236888
-0.236902
-0.236916
-0.236930
-0.236945
-0.236957
-0.237616
-0.237634
-0.237649
-0.237666
-0.237681
-0.237699
-0.237716
-0.237730
-0.237747
-0.237765
-0.237526
-0.237542
-0.237556
-0.237572
-0.237587
-0.237604
-0.237617
-0.237637
-0.237652
-0.237668
-0.237434
-0.237451
-0.237466
-0.237480
-0.237497
-0.237515
-0.237527
-0.237543
-0.237561
-0.237575
-0.237344
-0.237358
-0.237375
-0.237388
-0.237403
-0.237421
-0.237435
-0.237451
-0.237469
-0.237484
-0.237257
-0.237271
-0.237286
-0.237299
-0.237314
-0.237332
-0.237345
-0.237363
-0.237377
-0.237394
-0.237169
-0.237185
-0.237198
-0.237214
-0.237229
-0.237243
-0.237257
-0.237272
-0.237290
-0.237301
-0.237084
-0.237098
-0.237112
-0.237129
-0.237144
-0.237160
-0.237174
-0.237185
-0.237201
-0.237218
-0.236999
-0.237016
-0.237029
-0.237043
-0.237058
-0.237072
-0.237086
-0.237100
-0.237115
-0.237131
-0.236918
-0.236933
-0.236946
-0.236960
-0.236975
-0.236990
-0.237004
-0.237018
-0.237031
-0.237045
-0.236839
-0.236853
-0.236866
-0.236880
-0.236893
-0.236908
-0.236922
-0.236934
-0.236949
-0.236963
-0.237624
-0.237638
-0.237657
-0.237672
-0.237688
-0.237703
-0.237720
-0.237736
-0.237753
-0.237771
-0.237533
-0.237546
-0.237562
-0.237578
-0.237594
-0.237611
-0.237626
-0.237641
-0.237658
-0.237673
-0.237440
-0.237455
-0.237471
-0.237487
-0.237500
-0.237519
-0.237533
-0.237550
-0.237563
-0.237580
-0.237350
-0.237363
-0.237380
-0.237396
-0.237411
-0.237427
-0.237441
-0.237456
-0.237474
-0.237489
-0.237262
-0.237277
-0.237292
-0.237306
-0.237320
-0.237337
-0.237352
-0.237366
-0.237383
-0.237400
-0.237176
-0.237190
-0.237205
-0.237219
-0.237235
-0.237248
-0.237264
-0.237279
-0.237294
-0.237310
-0.237091
-0.237102
-0.237119
-0.237134
-0.237148
-0.237163
-0.237178
-0.237193
-0.237207
-0.237221
-0.237007
-0.237021
-0.237035
-0.237050
-0.237063
-0.237078
-0.237092
-0.237107
-0.237119
-0.237136
-0.236925
-0.236938
-0.236952
-0.236965
-0.236981
-0.236994
-0.237009
-0.237024
-0.237038
-0.237052
-0.236846
-0.236856
-0.236873
-0.236886
-0.236899
-0.236915
-0.236926
-0.236940
-0.236954
-0.236969
-0.237629
-0.237646
-0.237663
-0.237677
-0.237694
-0.237712
-0.237728
-0.237744
-0.237760
-0.237778
-0.237538
-0.237555
-0.237568
-0.237585
-0.237601
-0.237617
-0.237631
-0.237649
-0.237665
-0.237681
-0.237448
-0.237463
-0.237479
-0.237492
-0.237507
-0.237525
-0.237540
-0.237556
-0.237571
-0.237586
-0.237355
-0.237372
-0.237386
-0.237400
-0.237419
-0.237434
-0.237449
-0.237465
-0.237478
-0.237495
-0.237267
-0.237283
-0.237297
-0.237313
-0.237328
-0.237344
-0.237358
-0.237374
-0.237389
-0.237404
-0.237183
-0.237196
-0.237211
-0.237226
-0.237240
-0.237255
-0.237267
-0.237285
-0.237300
-0.237315
-0.237095
-0.237111
-0.237124
-0.237141
-0.237153
-0.237169
-0.237184
-0.237197
-0.237214
-0.237227
-0.237014
-0.237026
-0.237042
-0.237055
-0.237069
-0.237083
-0.237097
-0.237111
-0.237126
-0.237140
-0.236929
-0.236944
-0.236958
-0.236971
-0.236987
-0.237000
-0.237015
-0.237029
-0.237043
-0.237055
-0.236850
-0.236863
-0.236877
-0.236890
-0.236905
-0.236920
-0.236932
-0.236947
-0.236961
-0.236974
-0.237637
-0.237652
-0.237669
-0.237685
-0.237702
-0.237718
-0.237734
-0.237749
-0.237768
-0.237783
-0.237544
-0.237561
-0.237575
-0.237591
-0.237608
-0.237621
-0.237639
-0.237655
-0.237670
-0.237688
-0.237452
-0.237470
-0.237483
-0.237498
-0.237514
-0.237530
-0.237544
-0.237559
-0.237577
-0.237594
-0.237361
-0.237377
-0.237394
-0.237408
-0.237424
-0.237439
-0.237454
-0.237470
-0.237487
-0.237500
-0.237273
-0.237291
-0.237302
-0.237319
-0.237334
-0.237348
-0.237363
-0.237380
-0.237395
-0.237410
-0.237185
-0.237201
-0.237217
-0.237231
-0.237246
-0.237261
-0.237277
-0.237291
-0.237306
-0.237319
-0.237101
-0.237115
-0.237131
-0.237143
-0.237160
-0.237175
-0.237189
-0.237205
-0.237218
-0.237232
-0.237017
-0.237032
-0.237045
-0.237061
-0.237074
-0.237090
-0.237103
-0.237117
-0.237132
-0.237146
-0.236935
-0.236948
-0.236964
-0.236978
-0.236991
-0.237005
-0.237020
-0.237035
-0.237049
-0.237064
-0.236857
-0.236868
-0.236881
-0.236896
-0.236909
-0.236923
-0.236937
-0.236952
-0.236964
-0.236980
-0.237642
-0.237658
-0.237675
-0.237691
-0.237708
-0.237722
-0.237738
-0.237756
-0.237773
-0.237790
-0.237551
-0.237564
-0.237580
-0.237598
-0.237612
-0.237629
-0.237645
-0.237660
-0.237677
-0.237694
-0.237456
-0.237475
-0.237489
-0.237505
-0.237519
-0.237534
-0.237553
-0.237567
-0.237584
-0.237600
-0.237367
-0.237382
-0.237399
-0.237415
-0.237428
-0.237445
-0.237462
-0.237477
-0.237492
-0.237507
-0.237279
-0.237294
-0.237311
-0.237323
-0.237339
-0.237354
-0.237370
-0.237386
-0.237402
-0.237416
-0.237193
-0.237207
-0.237223
-0.237236
-0.237252
-0.237267
-0.237281
-0.237296
-0.237311
-0.237328
-0.237107
-0.237120
-0.237136
-0.237151
-0.237165
-0.237180
-0.237196
-0.237209
-0.237224
-0.237239
-0.237022
-0.237038
-0.237053
-0.237066
-0.237080
-0.237095
-0.237110
-0.237123
-0.237139
-0.237153
-0.236941
-0.236955
-0.236968
-0.236983
-0.236998
-0.237011
-0.237027
-0.237039
-0.237054
-0.237069
-0.236860
-0.236875
-0.236888
-0.236902
-0.236915
-0.236928
-0.236942
-0.236957
-0.236971
-0.236984
-0.237649
-0.237664
-0.237681
-0.237697
-0.237713
-0.237729
-0.237746
-0.237763
-0.237778
-0.237796
-0.237555
-0.237571
-0.237588
-0.237603
-0.237618
-0.237635
-0.237649
-0.237667
-0.237683
-0.237699
-0.237464
-0.237478
-0.237495
-0.237511
-0.237525
-0.237541
-0.237557
-0.237574
-0.237590
-0.237604
-0.237374
-0.237388
-0.237404
-0.237422
-0.237434
-0.237451
-0.237468
-0.237482
-0.237498
-0.237513
-0.237285
-0.237300
-0.237313
-0.237330
-0.237345
-0.237359
-0.237376
-0.237391
-0.237406
-0.237423
-0.237197
-0.237214
-0.237228
-0.237244
-0.237257
-0.237271
-0.237289
-0.237301
-0.237318
-0.237334
-0.237111
-0.237126
-0.237140
-0.237157
-0.237171
-0.237187
-0.237200
-0.237214
-0.237230
-0.237247
-0.237027
-0.237044
-0.237056
-0.237071
-0.237085
-0.237101
-0.237115
-0.237129
-0.237143
-0.237158
-0.236946
-0.236960
-0.236974
-0.236990
-0.237003
-0.237014
-0.237031
-0.237046
-0.237060
-0.237074
-0.236865
-0.236879
-0.236893
-0.236907
-0.236921
-0.236934
-0.236946
-0.236964
-0.236977
-0.236990
-0.237654
-0.237672
-0.237688
-0.237704
-0.237719
-0.237736
-0.237752
-0.237768
-0.237786
-0.237801
-0.237559
-0.237579
-0.237594
-0.237608
-0.237625
-0.237640
-0.237657
-0.237672
-0.237690
-0.237706
-0.237470
-0.237487
-0.237502
-0.237515
-0.237531
-0.237548
-0.237563
-0.237580
-0.237597
-0.237612
-0.237381
-0.237395
-0.237411
-0.237426
-0.237442
-0.237458
-0.237473
-0.237489
-0.237504
-0.237518
-0.237290
-0.237307
-0.237320
-0.237338
-0.237351
-0.237367
-0.237382
-0.237398
-0.237412
-0.237428
-0.237203
-0.237220
-0.237233
-0.237248
-0.237264
-0.237278
-0.237293
-0.237310
-0.237323
-0.237340
-0.237117
-0.237132
-0.237147
-0.237161
-0.237175
-0.237192
-0.237208
-0.237223
-0.237235
-0.237249
-0.237034
-0.237051
-0.237066
-0.237080
-0.237090
-0.237106
-0.237119
-0.237135
-0.237151
-0.237165
-0.236951
-0.236964
-0.236980
-0.236990
-0.237006
-0.237022
-0.237036
-0.237052
-0.237066
-0.237079
-0.236872
-0.236883
-0.236897
-0.236912
-0.236926
-0.236940
-0.236954
-0.236969
-0.236982
-0.236996
-0.237660
-0.237677
-0.237692
-0.237709
-0.237727
-0.237741
-0.237756
-0.237775
-0.237791
-0.237808
-0.237566
-0.237582
-0.237599
-0.237616
-0.237631
-0.237647
-0.237664
-0.237679
-0.237695
-0.237712
-0.237478
-0.237490
-0.237506
-0.237525
-0.237537
-0.237553
-0.237570
-0.237586
-0.237602
-0.237617
-0.237385
-0.237403
-0.237417
-0.237433
-0.237448
-0.237462
-0.237478
-0.237496
-0.237507
-0.237525
-0.237297
-0.237313
-0.237326
-0.237342
-0.237357
-0.237372
-0.237386
-0.237403
-0.237419
-0.237434
-0.237210
-0.237224
-0.237240
-0.237253
-0.237270
-0.237285
-0.237298
-0.237313
-0.237330
-0.237344
-0.237123
-0.237139
-0.237154
-0.237166
-0.237184
-0.237196
-0.237211
-0.237227
-0.237240
-0.237256
-0.237040
-0.237053
-0.237070
-0.237082
-0.237096
-0.237110
-0.237126
-0.237141
-0.237155
-0.237170
-0.236958
-0.236971
-0.236985
-0.237000
-0.237013
-0.237029
-0.237043
-0.237057
-0.237069