# vtk DataFile Version 3.0
PINN prediction t=2979.310302734375
ASCII
DATASET UNSTRUCTURED_GRID
POINTS 1000 float
0.000000 0.000000 0.000000
0.000000 0.000000 0.044444
0.000000 0.000000 0.088889
0.000000 0.000000 0.133333
0.000000 0.000000 0.177778
0.000000 0.000000 0.222222
0.000000 0.000000 0.266667
0.000000 0.000000 0.311111
0.000000 0.000000 0.355556
0.000000 0.000000 0.400000
0.000000 0.088889 0.000000
0.000000 0.088889 0.044444
0.000000 0.088889 0.088889
0.000000 0.088889 0.133333
0.000000 0.088889 0.177778
0.000000 0.088889 0.222222
0.000000 0.088889 0.266667
0.000000 0.088889 0.311111
0.000000 0.088889 0.355556
0.000000 0.088889 0.400000
0.000000 0.177778 0.000000
0.000000 0.177778 0.044444
0.000000 0.177778 0.088889
0.000000 0.177778 0.133333
0.000000 0.177778 0.177778
0.000000 0.177778 0.222222
0.000000 0.177778 0.266667
0.000000 0.177778 0.311111
0.000000 0.177778 0.355556
0.000000 0.177778 0.400000
0.000000 0.266667 0.000000
0.000000 0.266667 0.044444
0.000000 0.266667 0.088889
0.000000 0.266667 0.133333
0.000000 0.266667 0.177778
0.000000 0.266667 0.222222
0.000000 0.266667 0.266667
0.000000 0.266667 0.311111
0.000000 0.266667 0.355556
0.000000 0.266667 0.400000
0.000000 0.355556 0.000000
0.000000 0.355556 0.044444
0.000000 0.355556 0.088889
0.000000 0.355556 0.133333
0.000000 0.355556 0.177778
0.000000 0.355556 0.222222
0.000000 0.355556 0.266667
0.000000 0.355556 0.311111
0.000000 0.355556 0.355556
0.000000 0.355556 0.400000
0.000000 0.444444 0.000000
0.000000 0.444444 0.044444
0.000000 0.444444 0.088889
0.000000 0.444444 0.133333
0.000000 0.444444 0.177778
0.000000 0.444444 0.222222
0.000000 0.444444 0.266667
0.000000 0.444444 0.311111
0.000000 0.444444 0.355556
0.000000 0.444444 0.400000
0.000000 0.533333 0.000000
0.000000 0.533333 0.044444
0.000000 0.533333 0.088889
0.000000 0.533333 0.133333
0.000000 0.533333 0.177778
0.000000 0.533333 0.222222
0.000000 0.533333 0.266667
0.000000 0.533333 0.311111
0.000000 0.533333 0.355556
0.000000 0.533333 0.400000
0.000000 0.622222 0.000000
0.000000 0.622222 0.044444
0.000000 0.622222 0.088889
0.000000 0.622222 0.133333
0.000000 0.622222 0.177778
0.000000 0.622222 0.222222
0.000000 0.622222 0.266667
0.000000 0.622222 0.311111
0.000000 0.622222 0.355556
0.000000 0.622222 0.400000
0.000000 0.711111 0.000000
0.000000 0.711111 0.044444
0.000000 0.711111 0.088889
0.000000 0.711111 0.133333
0.000000 0.711111 0.177778
0.000000 0.711111 0.222222
0.000000 0.711111 0.266667
0.000000 0.711111 0.311111
0.000000 0.711111 0.355556
0.000000 0.711111 0.400000
0.000000 0.800000 0.000000
0.000000 0.800000 0.044444
0.000000 0.800000 0.088889
0.000000 0.800000 0.133333
0.000000 0.800000 0.177778
0.000000 0.800000 0.222222
0.000000 0.800000 0.266667
0.000000 0.800000 0.311111
0.000000 0.800000 0.355556
0.000000 0.800000 0.400000
0.044444 0.000000 0.000000
0.044444 0.000000 0.044444
0.044444 0.000000 0.088889
0.044444 0.000000 0.133333
0.044444 0.000000 0.177778
0.044444 0.000000 0.222222
0.044444 0.000000 0.266667
0.044444 0.000000 0.311111
0.044444 0.000000 0.355556
0.044444 0.000000 0.400000
0.044444 0.088889 0.000000
0.044444 0.088889 0.044444
0.044444 0.088889 0.088889
0.044444 0.088889 0.133333
0.044444 0.088889 0.177778
0.044444 0.088889 0.222222
0.044444 0.088889 0.266667
0.044444 0.088889 0.311111
0.044444 0.088889 0.355556
0.044444 0.088889 0.400000
0.044444 0.177778 0.000000
0.044444 0.177778 0.044444
0.044444 0.177778 0.088889
0.044444 0.177778 0.133333
0.044444 0.177778 0.177778
0.044444 0.177778 0.222222
0.044444 0.177778 0.266667
0.044444 0.177778 0.311111
0.044444 0.177778 0.355556
0.044444 0.177778 0.400000
0.044444 0.266667 0.000000
0.044444 0.266667 0.044444
0.044444 0.266667 0.088889
0.044444 0.266667 0.133333
0.044444 0.266667 0.177778
0.044444 0.266667 0.222222
0.044444 0.266667 0.266667
0.044444 0.266667 0.311111
0.044444 0.266667 0.355556
0.044444 0.266667 0.400000
0.044444 0.355556 0.000000
0.044444 0.355556 0.044444
0.044444 0.355556 0.088889
0.044444 0.355556 0.133333
0.044444 0.355556 0.177778
0.044444 0.355556 0.222222
0.044444 0.355556 0.266667
0.044444 0.355556 0.311111
0.044444 0.355556 0.355556
0.044444 0.355556 0.400000
0.044444 0.444444 0.000000
0.044444 0.444444 0.044444
0.044444 0.444444 0.088889
0.044444 0.444444 0.133333
0.044444 0.444444 0.177778
0.044444 0.444444 0.222222
0.044444 0.444444 0.266667
0.044444 0.444444 0.311111
0.044444 0.444444 0.355556
0.044444 0.444444 0.400000
0.044444 0.533333 0.000000
0.044444 0.533333 0.044444
0.044444 0.533333 0.088889
0.044444 0.533333 0.133333
0.044444 0.533333 0.177778
0.044444 0.533333 0.222222
0.044444 0.533333 0.266667
0.044444 0.533333 0.311111
0.044444 0.533333 0.355556
0.044444 0.533333 0.400000
0.044444 0.622222 0.000000
0.044444 0.622222 0.044444
0.044444 0.622222 0.088889
0.044444 0.622222 0.133333
0.044444 0.622222 0.177778
0.044444 0.622222 0.222222
0.044444 0.622222 0.266667
0.044444 0.622222 0.311111
0.044444 0.622222 0.355556
0.044444 0.622222 0.400000
0.044444 0.711111 0.000000
0.044444 0.711111 0.044444
0.044444 0.711111 0.088889
0.044444 0.711111 0.133333
0.044444 0.711111 0.177778
0.044444 0.711111 0.222222
0.044444 0.711111 0.266667
0.044444 0.711111 0.311111
0.044444 0.711111 0.355556
0.044444 0.711111 0.400000
0.044444 0.800000 0.000000
0.044444 0.800000 0.044444
0.044444 0.800000 0.088889
0.044444 0.800000 0.133333
0.044444 0.800000 0.177778
0.044444 0.800000 0.222222
0.044444 0.800000 0.266667
0.044444 0.800000 0.311111
0.044444 0.800000 0.355556
0.044444 0.800000 0.400000
0.088889 0.000000 0.000000
0.088889 0.000000 0.044444
0.088889 0.000000 0.088889
0.088889 0.000000 0.133333
0.088889 0.000000 0.177778
0.088889 0.000000 0.222222
0.088889 0.000000 0.266667
0.088889 0.000000 0.311111
0.088889 0.000000 0.355556
0.088889 0.000000 0.400000
0.088889 0.088889 0.000000
0.088889 0.088889 0.044444
0.088889 0.088889 0.088889
0.088889 0.088889 0.133333
0.088889 0.088889 0.177778
0.088889 0.088889 0.222222
0.088889 0.088889 0.266667
0.088889 0.088889 0.311111
0.088889 0.088889 0.355556
0.088889 0.088889 0.400000
0.088889 0.177778 0.000000
0.088889 0.177778 0.044444
0.088889 0.177778 0.088889
0.088889 0.177778 0.133333
0.088889 0.177778 0.177778
0.088889 0.177778 0.222222
0.088889 0.177778 0.266667
0.088889 0.177778 0.311111
0.088889 0.177778 0.355556
0.088889 0.177778 0.400000
0.088889 0.266667 0.000000
0.088889 0.266667 0.044444
0.088889 0.266667 0.088889
0.088889 0.266667 0.133333
0.088889 0.266667 0.177778
0.088889 0.266667 0.222222
0.088889 0.266667 0.266667
0.088889 0.266667 0.311111
0.088889 0.266667 0.355556
0.088889 0.266667 0.400000
0.088889 0.355556 0.000000
0.088889 0.355556 0.044444
0.088889 0.355556 0.088889
0.088889 0.355556 0.133333
0.088889 0.355556 0.177778
0.088889 0.355556 0.222222
0.088889 0.355556 0.266667
0.088889 0.355556 0.311111
0.088889 0.355556 0.355556
0.088889 0.355556 0.400000
0.088889 0.444444 0.000000
0.088889 0.444444 0.044444
0.088889 0.444444 0.088889
0.088889 0.444444 0.133333
0.088889 0.444444 0.177778
0.088889 0.444444 0.222222
0.088889 0.444444 0.266667
0.088889 0.444444 0.311111
0.088889 0.444444 0.355556
0.088889 0.444444 0.400000
0.088889 0.533333 0.000000
0.088889 0.533333 0.044444
0.088889 0.533333 0.088889
0.088889 0.533333 0.133333
0.088889 0.533333 0.177778
0.088889 0.533333 0.222222
0.088889 0.533333 0.266667
0.088889 0.533333 0.311111
0.088889 0.533333 0.355556
0.088889 0.533333 0.400000
0.088889 0.622222 0.000000
0.088889 0.622222 0.044444
0.088889 0.622222 0.088889
0.088889 0.622222 0.133333
0.088889 0.622222 0.177778
0.088889 0.622222 0.222222
0.088889 0.622222 0.266667
0.088889 0.622222 0.311111
0.088889 0.622222 0.355556
0.088889 0.622222 0.400000
0.088889 0.711111 0.000000
0.088889 0.711111 0.044444
0.088889 0.711111 0.088889
0.088889 0.711111 0.133333
0.088889 0.711111 0.177778
0.088889 0.711111 0.222222
0.088889 0.711111 0.266667
0.088889 0.711111 0.311111
0.088889 0.711111 0.355556
0.088889 0.711111 0.400000
0.088889 0.800000 0.000000
0.088889 0.800000 0.044444
0.088889 0.800000 0.088889
0.088889 0.800000 0.133333
0.088889 0.800000 0.177778
0.088889 0.800000 0.222222
0.088889 0.800000 0.266667
0.088889 0.800000 0.311111
0.088889 0.800000 0.355556
0.088889 0.800000 0.400000
0.133333 0.000000 0.000000
0.133333 0.000000 0.044444
0.133333 0.000000 0.088889
0.133333 0.000000 0.133333
0.133333 0.000000 0.177778
0.133333 0.000000 0.222222
0.133333 0.000000 0.266667
0.133333 0.000000 0.311111
0.133333 0.000000 0.355556
0.133333 0.000000 0.400000
0.133333 0.088889 0.000000
0.133333 0.088889 0.044444
0.133333 0.088889 0.088889
0.133333 0.088889 0.133333
0.133333 0.088889 0.177778
0.133333 0.088889 0.222222
0.133333 0.088889 0.266667
0.133333 0.088889 0.311111
0.133333 0.088889 0.355556
0.133333 0.088889 0.400000
0.133333 0.177778 0.000000
0.133333 0.177778 0.044444
0.133333 0.177778 0.088889
0.133333 0.177778 0.133333
0.133333 0.177778 0.177778
0.133333 0.177778 0.222222
0.133333 0.177778 0.266667
0.133333 0.177778 0.311111
0.133333 0.177778 0.355556
0.133333 0.177778 0.400000
0.133333 0.266667 0.000000
0.133333 0.266667 0.044444
0.133333 0.266667 0.088889
0.133333 0.266667 0.133333
0.133333 0.266667 0.177778
0.133333 0.266667 0.222222
0.133333 0.266667 0.266667
0.133333 0.266667 0.311111
0.133333 0.266667 0.355556
0.133333 0.266667 0.400000
0.133333 0.355556 0.000000
0.133333 0.355556 0.044444
0.133333 0.355556 0.088889
0.133333 0.355556 0.133333
0.133333 0.355556 0.177778
0.133333 0.355556 0.222222
0.133333 0.355556 0.266667
0.133333 0.355556 0.311111
0.133333 0.355556 0.355556
0.133333 0.355556 0.400000
0.133333 0.444444 0.000000
0.133333 0.444444 0.044444
0.133333 0.444444 0.088889
0.133333 0.444444 0.133333
0.133333 0.444444 0.177778
0.133333 0.444444 0.222222
0.133333 0.444444 0.266667
0.133333 0.444444 0.311111
0.133333 0.444444 0.355556
0.133333 0.444444 0.400000
0.133333 0.533333 0.000000
0.133333 0.533333 0.044444
0.133333 0.533333 0.088889
0.133333 0.533333 0.133333
0.133333 0.533333 0.177778
0.133333 0.533333 0.222222
[...]
POINT_DATA 1000
SCALARS Temperature float 1
LOOKUP_TABLE default
28.838867
28.829224
28.819641
28.809357
28.799744
28.789703
28.779602
28.770020
28.759857
28.750214
28.895416
28.885742
28.875854
28.866211
28.856354
28.846710
28.837189
28.827271
28.817444
28.807465
28.951263
28.941528
28.932007
28.922333
28.912750
28.903259
28.893616
28.883667
28.874176
28.864380
29.006622
28.997345
28.987823
28.978149
28.968445
28.959106
28.949341
28.939697
28.929993
28.920502
29.061493
29.052399
29.042877
29.033234
29.023621
29.014069
29.004547
28.995178
28.985565
28.975983
29.115753
29.106476
29.097321
29.087494
29.078552
29.069183
29.059570
29.050171
29.040771
29.031219
29.169495
29.160095
29.151001
29.141693
29.132782
29.123322
29.113831
29.104645
29.095062
29.085663
29.222565
29.213196
29.204315
29.195374
29.186005
29.176819
29.167511
29.157898
29.149200
29.139740
29.274994
29.266083
29.257202
29.247925
29.238831
29.229584
29.220673
29.211731
29.202301
29.193237
29.327118
29.317963
29.309113
29.300262
29.291351
29.282257
29.273285
29.263947
29.255188
29.246094
28.835052
28.825226
28.815491
28.805573
28.795654
28.785858
28.775940
28.765839
28.756195
28.746216
28.891663
28.881805
28.872498
28.862457
28.852753
28.842651
28.833008
28.823212
28.813873
28.804016
28.947662
28.938019
28.928314
28.918518
28.909088
28.899261
28.889557
28.879852
28.870483
28.860443
29.003021
28.993347
28.983948
28.974396
28.964874
28.955139
28.945587
28.935913
28.926300
28.916809
29.058044
29.048523
29.039154
29.029510
29.020111
29.010559
29.000763
28.991547
28.981812
28.972412
29.111908
29.102936
29.093445
29.084137
29.074524
29.065186
29.056000
29.046478
29.036682
29.027435
29.165894
29.156464
29.147308
29.138000
29.129150
29.119629
29.109955
29.100677
29.091492
29.081879
29.219238
29.209961
29.200684
29.191467
29.182404
29.173096
29.164185
29.154755
29.145508
29.136200
29.271667
29.262451
29.253601
29.244293
29.235413
29.225983
29.216888
29.207855
29.198853
29.189606
29.323547
29.314514
29.305695
29.296661
29.287872
29.278442
29.269623
29.260529
29.251556
29.242218
28.830994
28.821289
28.811646
28.801880
28.791992
28.782104
28.771667
28.762177
28.752472
28.742462
28.887787
28.878296
28.868286
28.858521
28.848877
28.838989
28.829315
28.819611
28.809753
28.800018
28.943909
28.934418
28.924316
28.914795
28.905029
28.895172
28.885986
28.876160
28.866455
28.856659
28.999054
28.989838
28.980255
28.970673
28.960876
28.951263
28.941895
28.932007
28.922607
28.912811
29.054047
29.044678
29.034943
29.025421
29.015869
29.006866
28.997009
28.987701
28.978119
28.968506
29.108368
29.099213
29.089752
29.080444
29.071136
29.061707
29.052155
29.042786
29.033386
29.023834
29.162354
29.153015
29.143921
29.134338
29.125244
29.115723
29.106506
29.097137
29.087585
29.078217
29.215424
29.205811
29.196899
29.187714
29.178650
29.169525
29.160400
29.151062
29.141724
29.132477
29.267883
29.258942
29.250214
29.240784
29.231567
29.222687
29.213379
29.204224
29.194946
29.185883
29.320190
29.310974
29.302124
29.293121
29.284058
29.275146
29.265930
29.257080
29.248138
29.238831
28.827118
28.817505
28.807465
28.797791
28.787811
28.778229
28.768127
28.758240
28.748352
28.738586
28.884003
28.874390
28.864624
28.854523
28.845062
28.835236
28.825439
28.815521
28.805542
28.795868
28.940002
28.930420
28.920746
28.911163
28.901367
28.891602
28.881714
28.872437
28.862518
28.852966
28.995239
28.985748
28.975983
28.966614
28.957275
28.947632
28.938354
28.928406
28.918579
28.908936
29.050537
29.041168
29.031677
29.021881
29.012512
29.002991
28.993378
28.983948
28.974335
28.964874
29.104858
29.095398
29.085907
29.076477
29.067566
29.057739
29.048615
29.039185
29.029205
29.020020
29.158447
29.149536
29.139893
29.130615
29.121643
29.112122
29.102722
29.093445
29.084198
29.074554
29.211945
29.202423
29.193604
29.183929
29.175079
29.165710
29.156372
29.147308
29.137817
29.128632
29.264221
29.255219
29.246307
29.237183
29.228119
29.218964
29.209869
29.200806
29.191620
29.181915
29.316559
29.307434
29.298431
29.289764
29.280487
29.271454
29.262238
29.253357
29.244263
29.235291
28.823639
28.813782
28.804016
28.793976
28.783875
28.774139
28.764496
28.754333
28.744324
28.734314
28.879944
28.870514
28.860596
28.850616
28.841125
28.831604
28.821411
28.811523
28.801697
28.791870
28.936066
28.926453
28.916992
28.907379
28.897797
28.887695
28.878052
28.868256
28.858521
28.848877
28.991791
28.981873
28.972595
28.963013
28.953156
28.943939
28.934204
28.924683
28.914764
28.905426
29.046661
29.036896
29.027740
29.018311
29.008514
28.999084
28.989655
28.980316
28.970581
28.960968
29.100861
29.091370
29.082397
29.073029
29.063660
29.054016
29.044983
29.035248
29.025513
29.016357
29.154999
29.145660
29.136597
29.126984
29.117859
29.108612
29.099091
29.089783
29.080383
29.070862
29.208130
29.199188
29.189484
29.180573
29.171417
29.162079
29.152924
29.143707
29.134491
29.125397
29.260803
29.251801
29.242859
29.233643
29.224579
29.215302
29.206085
29.196960
29.187927
29.178314
29.313019
29.303925
29.295044
29.285797
29.276825
29.267975
29.258942
29.249756
29.240936
29.231506
28.819733
28.809875
28.800293
28.790161
28.780212
28.770264
28.760406
28.750671
28.740662
28.730652
28.876404
28.866577
28.856812
28.846893
28.836975
28.827209
28.817780
28.807861
28.798218
28.787842
28.932465
28.922638
28.913086
28.903351
28.893829
28.884094
28.874451
28.864655
28.854828
28.844910
28.987915
28.978394
28.968872
28.959167
28.949677
28.939819
28.930359
28.920593
28.911102
28.901337
29.043243
29.033447
29.024048
29.014496
29.004913
28.995270
28.985809
28.976501
28.966980
28.957245
29.097382
29.088043
29.078674
29.069733
29.059967
29.050568
29.041077
29.031097
29.021912
29.012390
29.151245
29.142212
29.132843
29.123627
29.114197
29.104828
29.095245
29.086060
29.076691
29.067291
29.204559
29.195282
29.186157
29.176849
29.167633
29.158386
29.149231
29.139740
29.130798
29.121307
29.257080
29.248474
29.238953
29.230011
29.220947
29.211884
29.202362
29.193268
29.183960
29.175049
29.309021
29.300262
29.291504
29.282410
29.273285
29.264130
29.255249
29.246033
29.236938
29.227936
28.815613
28.805817
28.796021
28.786469
28.776489
28.766174
28.756378
28.746399
28.736633
28.726715
28.872772
28.862793
28.852814
28.843140
28.833099
28.823792
28.813751
28.804077
28.793884
28.784058
28.928406
28.918915
28.909149
28.899750
28.889923
28.880188
28.870605
28.860596
28.850891
28.841064
28.983978
28.974579
28.965302
28.955414
28.945923
28.936371
28.926575
28.916870
28.907410
28.897522
29.039276
29.029724
29.020264
29.010651
29.001190
28.991547
28.981934
28.972717
28.963013
28.953583
29.093689
29.084290
29.074951
29.065704
29.056366
29.046631
29.037170
29.027527
29.018463
29.008728
29.147369
29.137970
29.129059
29.119843
29.110321
29.101288
29.091675
29.082153
29.072784
29.063660
29.200867
29.191833
29.182373
29.173523
29.163940
29.155151
29.145599
29.136078
29.127106
29.117554
29.253357
29.244446
29.235687
29.226318
29.217407
29.208099
29.198853
29.189545
29.180481
29.171600
29.305908
29.296814
29.288116
29.278778
29.269592
29.260529
29.251495
29.242401
29.233490
29.224396
28.811951
28.802338
28.791962
28.782318
28.772583
28.762299
28.752716
28.742554
28.732819
28.723083
28.868317
28.858582
28.849091
28.839325
28.829407
28.819672
28.809906
28.799988
28.790100
28.780487
28.924744
28.915344
28.905579
28.895935
28.886108
28.876404
28.866608
28.856720
28.847198
28.837158
28.980347
28.970856
28.961243
28.951569
28.942047
28.932434
28.923004
28.912872
28.903625
28.893707
29.035461
29.025818
29.016602
29.007050
28.997437
28.987885
28.978424
28.968658
28.959259
28.949677
29.090271
29.080444
29.071167
29.061920
29.052124
29.042755
29.033569
29.023804
29.014374
29.004944
29.143890
29.134491
29.125366
29.115967
29.106415
29.097168
29.087555
29.078735
29.069244
29.059692
29.197357
29.187927
29.178894
29.169403
29.160187
29.150879
29.141937
29.132812
29.123413
29.113983
29.249969
29.241058
29.231750
29.222656
29.213562
29.204193
29.195374
29.186096
29.176819
29.167664
29.302216
29.292908
29.284119
29.274994
29.266083
29.257080
29.247955
29.238922
29.229889
29.220917
28.808258
28.798218
28.788300
28.778351
28.768372
28.758606
28.748688
28.738831
28.728943
28.718933
28.864868
28.855072
28.845093
28.835541
28.825684
28.815796
28.805939
28.796021
28.786346
28.776489
28.921082
28.911285
28.901489
28.891998
28.882355
28.872498
28.863068
28.853119
28.843231
28.833221
28.976776
28.967194
28.957214
28.948303
28.938385
28.928619
28.918884
28.909210
28.899536
28.889923
29.031433
29.022308
29.012390
29.003174
28.993744
28.984406
28.974762
28.965118
28.955383
28.946045
29.085785
29.076782
29.067902
29.058228
29.048889
29.039398
29.029602
29.020203
29.010834
29.000977
29.140320
29.130920
29.121765
29.112396
29.102905
29.093536
29.084259
29.074921
29.065613
29.056122
29.193512
29.184448
29.175323
29.166077
29.156555
29.147369
29.138184
29.128876
29.119812
29.110199
29.246155
29.237366
29.228333
29.219055
29.209991
29.200806
29.191711
29.182465
29.173126
29.164001
29.298859
29.289673
29.280792
29.271393
29.262573
29.253510
29.244293
29.235168
29.226379
29.217163
28.804321
28.794128
28.784180
28.774445
28.764465
28.754730
28.744812
28.734619
28.725037
28.714966
28.860962
28.850891
28.841217
28.831726
28.821899
28.812256
28.802032
28.792175
28.782196
28.772552
28.917114
28.907532
28.898132
28.888245
28.878326
28.868622
28.858917
28.848999
28.839325
28.829590
28.972809
28.963318
28.953644
28.944000
28.934204
28.924988
28.915100
28.905548
28.895874
28.886292
29.027679
29.018433
29.008972
28.999359
28.989929
28.980499
28.970459
28.961395
28.951752
28.941986
29.082336
29.073242
29.064026
29.054169
29.044952
29.035522
29.025909
29.016418
29.006897
28.997467
29.136475
29.127625
29.117798
29.108582
29.099243
29.089752
29.080597
29.071350
29.061676
29.051910
29.189728
29.180695
29.171539
29.162476
29.152893
29.144043
29.134583
29.125092
29.116241
29.106659
29.243011
29.233612
29.224609
29.215454
29.206207
29.196808
29.187805
29.178619
29.169525
29.160156
29.295013
29.286102
29.277130
29.267792
29.258759
29.249603
29.240814
29.231659
29.222565
29.213226

SCALARS Alpha float 1
LOOKUP_TABLE default
-0.246455
-0.246493
-0.246526
-0.246565
-0.246601
-0.246636
-0.246672
-0.246710
-0.246745
-0.246781
-0.246247
-0.246283
-0.246319
-0.246353
-0.246391
-0.246428
-0.246462
-0.246499
-0.246535
-0.246570
-0.246040
-0.246077
-0.246112
-0.246147
-0.246182
-0.246217
-0.246251
-0.246291
-0.246324
-0.246361
-0.245836
-0.245872
-0.245906
-0.245942
-0.245979
-0.246012
-0.246048
-0.246083
-0.246118
-0.246155
-0.245633
-0.245668
-0.245702
-0.245739
-0.245774
-0.245806
-0.245843
-0.245877
-0.245912
-0.245950
-0.245432
-0.245466
-0.245500
-0.245538
-0.245571
-0.245606
-0.245644
-0.245676
-0.245711
-0.245745
-0.245235
-0.245268
-0.245305
-0.245336
-0.245371
-0.245405
-0.245440
-0.245475
-0.245508
-0.245544
-0.245040
-0.245071
-0.245107
-0.245140
-0.245174
-0.245208
-0.245242
-0.245277
-0.245310
-0.245345
-0.244846
-0.244878
-0.244913
-0.244944
-0.244978
-0.245012
-0.245046
-0.245081
-0.245114
-0.245146
-0.244654
-0.244688
-0.244719
-0.244753
-0.244785
-0.244818
-0.244851
-0.244885
-0.244918
-0.244951
-0.246469
-0.246506
-0.246541
-0.246579
-0.246615
-0.246647
-0.246687
-0.246724
-0.246759
-0.246796
-0.246260
-0.246297
-0.246333
-0.246370
-0.246403
-0.246441
-0.246476
-0.246513
-0.246549
-0.246584
-0.246053
-0.246091
-0.246124
-0.246160
-0.246196
-0.246232
-0.246267
-0.246305
-0.246340
-0.246377
-0.245849
-0.245884
-0.245920
-0.245955
-0.245990
-0.246025
-0.246062
-0.246098
-0.246132
-0.246170
-0.245647
-0.245682
-0.245717
-0.245752
-0.245786
-0.245821
-0.245856
-0.245889
-0.245927
-0.245962
-0.245447
-0.245481
-0.245517
-0.245551
-0.245584
-0.245620
-0.245653
-0.245689
-0.245724
-0.245759
-0.245248
-0.245282
-0.245317
-0.245353
-0.245384
-0.245419
-0.245454
-0.245488
-0.245523
-0.245559
-0.245054
-0.245087
-0.245120
-0.245155
-0.245187
-0.245222
-0.245255
-0.245290
-0.245323
-0.245359
-0.244857
-0.244890
-0.244926
-0.244957
-0.244991
-0.245026
-0.245060
-0.245094
-0.245126
-0.245161
-0.244666
-0.244698
-0.244733
-0.244764
-0.244798
-0.244831
-0.244866
-0.244897
-0.244931
-0.244965
-0.246484
-0.246517
-0.246556
-0.246592
-0.246629
-0.246665
-0.246702
-0.246739
-0.246774
-0.246810
-0.246275
-0.246309
-0.246346
-0.246381
-0.246420
-0.246456
-0.246489
-0.246528
-0.246564
-0.246598
-0.246068
-0.246103
-0.246139
-0.246174
-0.246212
-0.246247
-0.246283
-0.246319
-0.246353
-0.246388
-0.245864
-0.245898
-0.245933
-0.245969
-0.246005
-0.246039
-0.246074
-0.246111
-0.246146
-0.246180
-0.245659
-0.245696
-0.245731
-0.245765
-0.245802
-0.245835
-0.245872
-0.245905
-0.245940
-0.245977
-0.245461
-0.245495
-0.245528
-0.245564
-0.245599
-0.245634
-0.245668
-0.245702
-0.245739
-0.245772
-0.245261
-0.245296
-0.245331
-0.245365
-0.245400
-0.245432
-0.245467
-0.245501
-0.245537
-0.245571
-0.245065
-0.245100
-0.245134
-0.245167
-0.245200
-0.245234
-0.245269
-0.245305
-0.245335
-0.245371
-0.244870
-0.244905
-0.244938
-0.244969
-0.245006
-0.245039
-0.245071
-0.245104
-0.245140
-0.245173
-0.244679
-0.244710
-0.244745
-0.244777
-0.244812
-0.244845
-0.244877
-0.244911
-0.244945
-0.244980
-0.246500
-0.246534
-0.246570
-0.246607
-0.246644
-0.246678
-0.246717
-0.246753
-0.246789
-0.246824
-0.246288
-0.246324
-0.246360
-0.246397
-0.246431
-0.246468
-0.246505
-0.246541
-0.246577
-0.246613
-0.246083
-0.246117
-0.246153
-0.246189
-0.246225
-0.246260
-0.246297
-0.246332
-0.246368
-0.246404
-0.245877
-0.245912
-0.245948
-0.245984
-0.246018
-0.246054
-0.246089
-0.246122
-0.246160
-0.246194
-0.245675
-0.245709
-0.245746
-0.245779
-0.245814
-0.245848
-0.245885
-0.245920
-0.245956
-0.245989
-0.245474
-0.245507
-0.245543
-0.245578
-0.245612
-0.245647
-0.245684
-0.245715
-0.245750
-0.245786
-0.245274
-0.245309
-0.245344
-0.245378
-0.245412
-0.245447
-0.245480
-0.245514
-0.245550
-0.245585
-0.245080
-0.245113
-0.245145
-0.245180
-0.245214
-0.245248
-0.245282
-0.245318
-0.245353
-0.245385
-0.244884
-0.244917
-0.244952
-0.244985
-0.245018
-0.245052
-0.245085
-0.245118
-0.245153
-0.245189
-0.244691
-0.244727
-0.244758
-0.244790
-0.244825
-0.244857
-0.244892
-0.244924
-0.244957
-0.244991
-0.246511
-0.246549
-0.246583
-0.246620
-0.246657
-0.246694
-0.246729
-0.246765
-0.246804
-0.246839
-0.246304
-0.246340
-0.246375
-0.246411
-0.246444
-0.246485
-0.246518
-0.246555
-0.246590
-0.246630
-0.246096
-0.246130
-0.246165
-0.246204
-0.246237
-0.246275
-0.246310
-0.246347
-0.246380
-0.246417
-0.245889
-0.245926
-0.245962
-0.245996
-0.246032
-0.246067
-0.246102
-0.246138
-0.246174
-0.246208
-0.245689
-0.245724
-0.245758
-0.245793
-0.245828
-0.245863
-0.245898
-0.245936
-0.245969
-0.246003
-0.245488
-0.245524
-0.245557
-0.245591
-0.245626
-0.245658
-0.245697
-0.245731
-0.245767
-0.245801
-0.245288
-0.245324
-0.245359
-0.245391
-0.245426
-0.245460
-0.245494
-0.245530
-0.245564
-0.245598
-0.245091
-0.245125
-0.245161
-0.245193
-0.245227
-0.245261
-0.245297
-0.245329
-0.245364
-0.245399
-0.244898
-0.244930
-0.244964
-0.244997
-0.245032
-0.245065
-0.245099
-0.245132
-0.245167
-0.245201
-0.244705
-0.244737
-0.244773
-0.244803
-0.244837
-0.244870
-0.244904
-0.244938
-0.244971
-0.245004
-0.246526
-0.246562
-0.246600
-0.246637
-0.246672
-0.246709
-0.246746
-0.246780
-0.246817
-0.246853
-0.246318
-0.246352
-0.246388
-0.246426
-0.246461
-0.246497
-0.246533
-0.246572
-0.246604
-0.246643
-0.246109
-0.246146
-0.246181
-0.246216
-0.246253
-0.246288
-0.246323
-0.246360
-0.246395
-0.246432
-0.245904
-0.245940
-0.245977
-0.246011
-0.246047
-0.246084
-0.246118
-0.246153
-0.246189
-0.246223
-0.245702
-0.245739
-0.245773
-0.245807
-0.245842
-0.245876
-0.245913
-0.245948
-0.245981
-0.246016
-0.245500
-0.245537
-0.245570
-0.245604
-0.245640
-0.245675
-0.245710
-0.245743
-0.245779
-0.245813
-0.245303
-0.245337
-0.245370
-0.245405
-0.245440
-0.245473
-0.245508
-0.245542
-0.245578
-0.245612
-0.245104
-0.245139
-0.245173
-0.245207
-0.245240
-0.245276
-0.245309
-0.245345
-0.245380
-0.245415
-0.244910
-0.244944
-0.244977
-0.245011
-0.245045
-0.245077
-0.245113
-0.245147
-0.245181
-0.245214
-0.244717
-0.244752
-0.244784
-0.244818
-0.244849
-0.244885
-0.244917
-0.244950
-0.244983
-0.245019
-0.246541
-0.246576
-0.246611
-0.246649
-0.246686
-0.246722
-0.246759
-0.246797
-0.246832
-0.246869
-0.246331
-0.246368
-0.246404
-0.246439
-0.246475
-0.246512
-0.246548
-0.246584
-0.246620
-0.246658
-0.246123
-0.246160
-0.246192
-0.246230
-0.246267
-0.246302
-0.246338
-0.246374
-0.246410
-0.246447
-0.245920
-0.245955
-0.245988
-0.246025
-0.246059
-0.246095
-0.246131
-0.246166
-0.246203
-0.246236
-0.245716
-0.245749
-0.245787
-0.245821
-0.245853
-0.245891
-0.245926
-0.245962
-0.245999
-0.246031
-0.245516
-0.245550
-0.245584
-0.245617
-0.245651
-0.245688
-0.245724
-0.245757
-0.245793
-0.245828
-0.245317
-0.245351
-0.245385
-0.245419
-0.245451
-0.245486
-0.245521
-0.245557
-0.245592
-0.245625
-0.245119
-0.245152
-0.245189
-0.245220
-0.245254
-0.245287
-0.245325
-0.245357
-0.245391
-0.245426
-0.244924
-0.244957
-0.244990
-0.245025
-0.245058
-0.245092
-0.245126
-0.245160
-0.245194
-0.245227
-0.244731
-0.244764
-0.244797
-0.244831
-0.244864
-0.244898
-0.244930
-0.244964
-0.244998
-0.245030
-0.246556
-0.246591
-0.246628
-0.246666
-0.246699
-0.246738
-0.246773
-0.246809
-0.246846
-0.246883
-0.246345
-0.246381
-0.246419
-0.246453
-0.246492
-0.246525
-0.246561
-0.246597
-0.246635
-0.246671
-0.246138
-0.246174
-0.246208
-0.246243
-0.246281
-0.246316
-0.246352
-0.246387
-0.246424
-0.246461
-0.245932
-0.245967
-0.246003
-0.246038
-0.246074
-0.246109
-0.246144
-0.246181
-0.246217
-0.246253
-0.245730
-0.245763
-0.245800
-0.245835
-0.245870
-0.245905
-0.245940
-0.245976
-0.246009
-0.246046
-0.245528
-0.245564
-0.245596
-0.245632
-0.245669
-0.245704
-0.245736
-0.245771
-0.245807
-0.245843
-0.245330
-0.245363
-0.245397
-0.245432
-0.245468
-0.245500
-0.245535
-0.245569
-0.245603
-0.245639
-0.245132
-0.245166
-0.245200
-0.245235
-0.245266
-0.245302
-0.245336
-0.245371
-0.245405
-0.245438
-0.244935
-0.244970
-0.245005
-0.245039
-0.245070
-0.245106
-0.245141
-0.245172
-0.245208
-0.245241
-0.244745
-0.244777
-0.244812
-0.244844
-0.244878
-0.244910
-0.244943
-0.244976
-0.245012
-0.245044
-0.246569
-0.246605
-0.246642
-0.246677
-0.246713
-0.246751
-0.246787
-0.246822
-0.246860
-0.246896
-0.246360
-0.246394
-0.246432
-0.246468
-0.246505
-0.246541
-0.246577
-0.246612
-0.246648
-0.246687
-0.246153
-0.246187
-0.246224
-0.246259
-0.246294
-0.246331
-0.246364
-0.246401
-0.246439
-0.246475
-0.245948
-0.245983
-0.246017
-0.246052
-0.246088
-0.246122
-0.246159
-0.246195
-0.246231
-0.246266
-0.245741
-0.245779
-0.245812
-0.245847
-0.245884
-0.245918
-0.245955
-0.245988
-0.246024
-0.246059
-0.245542
-0.245577
-0.245611
-0.245646
-0.245682
-0.245714
-0.245750
-0.245786
-0.245820
-0.245854
-0.245343
-0.245378
-0.245412
-0.245445
-0.245480
-0.245515
-0.245549
-0.245585
-0.245617
-0.245651
-0.245145
-0.245179
-0.245212
-0.245246
-0.245281
-0.245316
-0.245349
-0.245384
-0.245418
-0.245453
-0.244949
-0.244983
-0.245017
-0.245052
-0.245085
-0.245120
-0.245151
-0.245187
-0.245221
-0.245255
-0.244757
-0.244791
-0.244825
-0.244856
-0.244890
-0.244924
-0.244956
-0.244992
-0.245024
-0.245057
-0.246583
-0.246620
-0.246656
-0.246693
-0.246728
-0.246766
-0.246801
-0.246838
-0.246872
-0.246912
-0.246374
-0.246410
-0.246445
-0.246484
-0.246519
-0.246554
-0.246591
-0.246627
-0.246663
-0.246699
-0.246165
-0.246202
-0.246237
-0.246274
-0.246310
-0.246347
-0.246380
-0.246416
-0.246452
-0.246488
-0.245960
-0.245995
-0.246031
-0.246068
-0.246103
-0.246137
-0.246172
-0.246208
-0.246247
-0.246280
-0.245757
-0.245793
-0.245828
-0.245861
-0.245897
-0.245931
-0.245968
-0.246003
-0.246038
-0.246074
-0.245556
-0.245589
-0.245624
-0.245658
-0.245694
-0.245728
-0.245766
-0.245800
-0.245835
-0.245869
-0.245357
-0.245391
-0.245425
-0.245459
-0.245493
-0.245527
-0.245562
-0.245598
-0.245633
-0.245667
-0.245158
-0.245193
-0.245225
-0.245260
-0.245296
-0.245330
-0.245364
-0.245398
-0.245431
-0.245467
-0.244962
-0.244999
-0.245031
-0.245065
-0.245097
-0.245133
-0.245168
-0.245201
-0.245234