# vtk DataFile Version 3.0
PINN prediction t=11917.2412109375
ASCII
DATASET UNSTRUCTURED_GRID
POINTS 1000 float
0.000000 0.000000 0.000000
0.000000 0.000000 0.044444
0.000000 0.000000 0.088889
0.000000 0.000000 0.133333
0.000000 0.000000 0.177778
0.000000 0.000000 0.222222
0.000000 0.000000 0.266667
0.000000 0.000000 0.311111
0.000000 0.000000 0.355556
0.000000 0.000000 0.400000
0.000000 0.088889 0.000000
0.000000 0.088889 0.044444
0.000000 0.088889 0.088889
0.000000 0.088889 0.133333
0.000000 0.088889 0.177778
0.000000 0.088889 0.222222
0.000000 0.088889 0.266667
0.000000 0.088889 0.311111
0.000000 0.088889 0.355556
0.000000 0.088889 0.400000
0.000000 0.177778 0.000000
0.000000 0.177778 0.044444
0.000000 0.177778 0.088889
0.000000 0.177778 0.133333
0.000000 0.177778 0.177778
0.000000 0.177778 0.222222
0.000000 0.177778 0.266667
0.000000 0.177778 0.311111
0.000000 0.177778 0.355556
0.000000 0.177778 0.400000
0.000000 0.266667 0.000000
0.000000 0.266667 0.044444
0.000000 0.266667 0.088889
0.000000 0.266667 0.133333
0.000000 0.266667 0.177778
0.000000 0.266667 0.222222
0.000000 0.266667 0.266667
0.000000 0.266667 0.311111
0.000000 0.266667 0.355556
0.000000 0.266667 0.400000
0.000000 0.355556 0.000000
0.000000 0.355556 0.044444
0.000000 0.355556 0.088889
0.000000 0.355556 0.133333
0.000000 0.355556 0.177778
0.000000 0.355556 0.222222
0.000000 0.355556 0.266667
0.000000 0.355556 0.311111
0.000000 0.355556 0.355556
0.000000 0.355556 0.400000
0.000000 0.444444 0.000000
0.000000 0.444444 0.044444
0.000000 0.444444 0.088889
0.000000 0.444444 0.133333
0.000000 0.444444 0.177778
0.000000 0.444444 0.222222
0.000000 0.444444 0.266667
0.000000 0.444444 0.311111
0.000000 0.444444 0.355556
0.000000 0.444444 0.400000
0.000000 0.533333 0.000000
0.000000 0.533333 0.044444
0.000000 0.533333 0.088889
0.000000 0.533333 0.133333
0.000000 0.533333 0.177778
0.000000 0.533333 0.222222
0.000000 0.533333 0.266667
0.000000 0.533333 0.311111
0.000000 0.533333 0.355556
0.000000 0.533333 0.400000
0.000000 0.622222 0.000000
0.000000 0.622222 0.044444
0.000000 0.622222 0.088889
0.000000 0.622222 0.133333
0.000000 0.622222 0.177778
0.000000 0.622222 0.222222
0.000000 0.622222 0.266667
0.000000 0.622222 0.311111
0.000000 0.622222 0.355556
0.000000 0.622222 0.400000
0.000000 0.711111 0.000000
0.000000 0.711111 0.044444
0.000000 0.711111 0.088889
0.000000 0.711111 0.133333
0.000000 0.711111 0.177778
0.000000 0.711111 0.222222
0.000000 0.711111 0.266667
0.000000 0.711111 0.311111
0.000000 0.711111 0.355556
0.000000 0.711111 0.400000
0.000000 0.800000 0.000000
0.000000 0.800000 0.044444
0.000000 0.800000 0.088889
0.000000 0.800000 0.133333
0.000000 0.800000 0.177778
0.000000 0.800000 0.222222
0.000000 0.800000 0.266667
0.000000 0.800000 0.311111
0.000000 0.800000 0.355556
0.000000 0.800000 0.400000
0.044444 0.000000 0.000000
0.044444 0.000000 0.044444
0.044444 0.000000 0.088889
0.044444 0.000000 0.133333
0.044444 0.000000 0.177778
0.044444 0.000000 0.222222
0.044444 0.000000 0.266667
0.044444 0.000000 0.311111
0.044444 0.000000 0.355556
0.044444 0.000000 0.400000
0.044444 0.088889 0.000000
0.044444 0.088889 0.044444
0.044444 0.088889 0.088889
0.044444 0.088889 0.133333
0.044444 0.088889 0.177778
0.044444 0.088889 0.222222
0.044444 0.088889 0.266667
0.044444 0.088889 0.311111
0.044444 0.088889 0.355556
0.044444 0.088889 0.400000
0.044444 0.177778 0.000000
0.044444 0.177778 0.044444
0.044444 0.177778 0.088889
0.044444 0.177778 0.133333
0.044444 0.177778 0.177778
0.044444 0.177778 0.222222
0.044444 0.177778 0.266667
0.044444 0.177778 0.311111
0.044444 0.177778 0.355556
0.044444 0.177778 0.400000
0.044444 0.266667 0.000000
0.044444 0.266667 0.044444
0.044444 0.266667 0.088889
0.044444 0.266667 0.133333
0.044444 0.266667 0.177778
0.044444 0.266667 0.222222
0.044444 0.266667 0.266667
0.044444 0.266667 0.311111
0.044444 0.266667 0.355556
0.044444 0.266667 0.400000
0.044444 0.355556 0.000000
0.044444 0.355556 0.044444
0.044444 0.355556 0.088889
0.044444 0.355556 0.133333
0.044444 0.355556 0.177778
0.044444 0.355556 0.222222
0.044444 0.355556 0.266667
0.044444 0.355556 0.311111
0.044444 0.355556 0.355556
0.044444 0.355556 0.400000
0.044444 0.444444 0.000000
0.044444 0.444444 0.044444
0.044444 0.444444 0.088889
0.044444 0.444444 0.133333
0.044444 0.444444 0.177778
0.044444 0.444444 0.222222
0.044444 0.444444 0.266667
0.044444 0.444444 0.311111
0.044444 0.444444 0.355556
0.044444 0.444444 0.400000
0.044444 0.533333 0.000000
0.044444 0.533333 0.044444
0.044444 0.533333 0.088889
0.044444 0.533333 0.133333
0.044444 0.533333 0.177778
0.044444 0.533333 0.222222
0.044444 0.533333 0.266667
0.044444 0.533333 0.311111
0.044444 0.533333 0.355556
0.044444 0.533333 0.400000
0.044444 0.622222 0.000000
0.044444 0.622222 0.044444
0.044444 0.622222 0.088889
0.044444 0.622222 0.133333
0.044444 0.622222 0.177778
0.044444 0.622222 0.222222
0.044444 0.622222 0.266667
0.044444 0.622222 0.311111
0.044444 0.622222 0.355556
0.044444 0.622222 0.400000
0.044444 0.711111 0.000000
0.044444 0.711111 0.044444
0.044444 0.711111 0.088889
0.044444 0.711111 0.133333
0.044444 0.711111 0.177778
0.044444 0.711111 0.222222
0.044444 0.711111 0.266667
0.044444 0.711111 0.311111
0.044444 0.711111 0.355556
0.044444 0.711111 0.400000
0.044444 0.800000 0.000000
0.044444 0.800000 0.044444
0.044444 0.800000 0.088889
0.044444 0.800000 0.133333
0.044444 0.800000 0.177778
0.044444 0.800000 0.222222
0.044444 0.800000 0.266667
0.044444 0.800000 0.311111
0.044444 0.800000 0.355556
0.044444 0.800000 0.400000
0.088889 0.000000 0.000000
0.088889 0.000000 0.044444
0.088889 0.000000 0.088889
0.088889 0.000000 0.133333
0.088889 0.000000 0.177778
0.088889 0.000000 0.222222
0.088889 0.000000 0.266667
0.088889 0.000000 0.311111
0.088889 0.000000 0.355556
0.088889 0.000000 0.400000
0.088889 0.088889 0.000000
0.088889 0.088889 0.044444
0.088889 0.088889 0.088889
0.088889 0.088889 0.133333
0.088889 0.088889 0.177778
0.088889 0.088889 0.222222
0.088889 0.088889 0.266667
0.088889 0.088889 0.311111
0.088889 0.088889 0.355556
0.088889 0.088889 0.400000
0.088889 0.177778 0.000000
0.088889 0.177778 0.044444
0.088889 0.177778 0.088889
0.088889 0.177778 0.133333
0.088889 0.177778 0.177778
0.088889 0.177778 0.222222
0.088889 0.177778 0.266667
0.088889 0.177778 0.311111
0.088889 0.177778 0.355556
0.088889 0.177778 0.400000
0.088889 0.266667 0.000000
0.088889 0.266667 0.044444
0.088889 0.266667 0.088889
0.088889 0.266667 0.133333
0.088889 0.266667 0.177778
0.088889 0.266667 0.222222
0.088889 0.266667 0.266667
0.088889 0.266667 0.311111
0.088889 0.266667 0.355556
0.088889 0.266667 0.400000
0.088889 0.355556 0.000000
0.088889 0.355556 0.044444
0.088889 0.355556 0.088889
0.088889 0.355556 0.133333
0.088889 0.355556 0.177778
0.088889 0.355556 0.222222
0.088889 0.355556 0.266667
0.088889 0.355556 0.311111
0.088889 0.355556 0.355556
0.088889 0.355556 0.400000
0.088889 0.444444 0.000000
0.088889 0.444444 0.044444
0.088889 0.444444 0.088889
0.088889 0.444444 0.133333
0.088889 0.444444 0.177778
0.088889 0.444444 0.222222
0.088889 0.444444 0.266667
0.088889 0.444444 0.311111
0.088889 0.444444 0.355556
0.088889 0.444444 0.400000
0.088889 0.533333 0.000000
0.088889 0.533333 0.044444
0.088889 0.533333 0.088889
0.088889 0.533333 0.133333
0.088889 0.533333 0.177778
0.088889 0.533333 0.222222
0.088889 0.533333 0.266667
0.088889 0.533333 0.311111
0.088889 0.533333 0.355556
0.088889 0.533333 0.400000
0.088889 0.622222 0.000000
0.088889 0.622222 0.044444
0.088889 0.622222 0.088889
0.088889 0.622222 0.133333
0.088889 0.622222 0.177778
0.088889 0.622222 0.222222
0.088889 0.622222 0.266667
0.088889 0.622222 0.311111
0.088889 0.622222 0.355556
0.088889 0.622222 0.400000
0.088889 0.711111 0.000000
0.088889 0.711111 0.044444
0.088889 0.711111 0.088889
0.088889 0.711111 0.133333
0.088889 0.711111 0.177778
0.088889 0.711111 0.222222
0.088889 0.711111 0.266667
0.088889 0.711111 0.311111
0.088889 0.711111 0.355556
0.088889 0.711111 0.400000
0.088889 0.800000 0.000000
0.088889 0.800000 0.044444
0.088889 0.800000 0.088889
0.088889 0.800000 0.133333
0.088889 0.800000 0.177778
0.088889 0.800000 0.222222
0.088889 0.800000 0.266667
0.088889 0.800000 0.311111
0.088889 0.800000 0.355556
0.088889 0.800000 0.400000
0.133333 0.000000 0.000000
0.133333 0.000000 0.044444
0.133333 0.000000 0.088889
0.133333 0.000000 0.133333
0.133333 0.000000 0.177778
0.133333 0.000000 0.222222
0.133333 0.000000 0.266667
0.133333 0.000000 0.311111
0.133333 0.000000 0.355556
0.133333 0.000000 0.400000
0.133333 0.088889 0.000000
0.133333 0.088889 0.044444
0.133333 0.088889 0.088889
0.133333 0.088889 0.133333
0.133333 0.088889 0.177778
0.133333 0.088889 0.222222
0.133333 0.088889 0.266667
0.133333 0.088889 0.311111
0.133333 0.088889 0.355556
0.133333 0.088889 0.400000
0.133333 0.177778 0.000000
0.133333 0.177778 0.044444
0.133333 0.177778 0.088889
0.133333 0.177778 0.133333
0.133333 0.177778 0.177778
0.133333 0.177778 0.222222
0.133333 0.177778 0.266667
0.133333 0.177778 0.311111
0.133333 0.177778 0.355556
0.133333 0.177778 0.400000
0.133333 0.266667 0.000000
0.133333 0.266667 0.044444
0.133333 0.266667 0.088889
0.133333 0.266667 0.133333
0.133333 0.266667 0.177778
0.133333 0.266667 0.222222
0.133333 0.266667 0.266667
0.133333 0.266667 0.311111
0.133333 0.266667 0.355556
0.133333 0.266667 0.400000
0.133333 0.355556 0.000000
0.133333 0.355556 0.044444
0.133333 0.355556 0.088889
0.133333 0.355556 0.133333
0.133333 0.355556 0.177778
0.133333 0.355556 0.222222
0.133333 0.355556 0.266667
0.133333 0.355556 0.311111
0.133333 0.355556 0.355556
0.133333 0.355556 0.400000
0.133333 0.444444 0.000000
0.133333 0.444444 0.044444
0.133333 0.444444 0.088889
0.133333 0.444444 0.133333
0.133333 0.444444 0.177778
0.133333 0.444444 0.222222
0.133333 0.444444 0.266667
0.133333 0.444444 0.311111
0.133333 0.444444 0.355556
0.133333 0.444444 0.400000
0.133333 0.533333 0.000000
0.133333 0.533333 0.044444
0.133333 0.533333 0.088889
0.133333 0.533333 0.133333
0.133333 0.533333 0.177778
0.133333 0.533333 0.222222
[...]
POINT_DATA 1000
SCALARS Temperature float 1
LOOKUP_TABLE default
32.433838
32.433441
32.432922
32.432556
32.432037
32.431915
32.431091
32.430817
32.430420
32.429718
32.436249
32.435974
32.435455
32.435150
32.434662
32.433990
32.433960
32.433594
32.432892
32.432251
32.438690
32.438354
32.437836
32.437408
32.437195
32.436462
32.436371
32.435822
32.435455
32.435059
32.440887
32.440765
32.440002
32.439667
32.439423
32.439087
32.438538
32.438080
32.437805
32.437134
32.443390
32.443207
32.442047
32.442047
32.441620
32.441498
32.440918
32.440796
32.440125
32.439697
32.445160
32.445251
32.444519
32.444489
32.444000
32.443665
32.443359
32.442902
32.442139
32.442017
32.447662
32.447144
32.447144
32.446411
32.446106
32.445526
32.445190
32.445282
32.444641
32.444366
32.450073
32.449524
32.449249
32.448547
32.448456
32.447968
32.447601
32.447113
32.446838
32.446411
32.452179
32.451965
32.451324
32.450806
32.450684
32.450592
32.450165
32.449493
32.449158
32.448730
32.454285
32.453857
32.453430
32.453156
32.452911
32.452301
32.452271
32.451752
32.451263
32.450958
32.433685
32.433380
32.432861
32.432526
32.432159
32.431641
32.431183
32.430634
32.430389
32.429718
32.436279
32.435852
32.435333
32.434906
32.434387
32.434143
32.433685
32.433472
32.432983
32.432343
32.438385
32.438110
32.437714
32.437225
32.436737
32.436493
32.436340
32.435638
32.435333
32.435028
32.440765
32.440582
32.439850
32.439545
32.439240
32.439148
32.438446
32.437744
32.437622
32.437103
32.443329
32.442688
32.442566
32.441742
32.441589
32.441284
32.440704
32.440216
32.439911
32.439514
32.445160
32.445068
32.444489
32.444183
32.443726
32.443481
32.443054
32.442444
32.442322
32.441742
32.447327
32.447113
32.446991
32.446350
32.445953
32.445435
32.445068
32.445099
32.444702
32.444122
32.449982
32.449402
32.449127
32.448547
32.448151
32.447815
32.447327
32.447021
32.446991
32.446259
32.452179
32.451752
32.451080
32.450958
32.450684
32.450226
32.449829
32.449371
32.448944
32.448486
32.453949
32.453674
32.453278
32.453156
32.452637
32.452240
32.451996
32.451691
32.451019
32.450928
32.433411
32.433075
32.432770
32.432251
32.432098
32.431335
32.430969
32.430206
32.430206
32.429291
32.435913
32.435486
32.435333
32.434814
32.434235
32.433868
32.433563
32.432800
32.432587
32.432220
32.438446
32.437805
32.437683
32.437225
32.436493
32.436310
32.435913
32.435455
32.435150
32.434845
32.440765
32.440247
32.440063
32.439514
32.439026
32.438599
32.438141
32.437836
32.437500
32.437225
32.443115
32.442261
32.442230
32.441742
32.441528
32.441101
32.440643
32.439972
32.440063
32.439331
32.445343
32.444824
32.444550
32.444061
32.443695
32.443451
32.443024
32.442291
32.442139
32.441803
32.447418
32.446930
32.446716
32.446259
32.445801
32.445282
32.445282
32.444702
32.444427
32.444031
32.449524
32.449280
32.448853
32.448578
32.448151
32.447754
32.447296
32.446991
32.446655
32.446136
32.451874
32.451599
32.451019
32.450806
32.450531
32.450043
32.449463
32.449158
32.448669
32.448486
32.453888
32.453491
32.453278
32.452820
32.452301
32.452179
32.452057
32.451477
32.451019
32.450592
32.433533
32.432892
32.432251
32.431885
32.431793
32.431213
32.430908
32.430481
32.429779
32.429169
32.435760
32.435394
32.435089
32.434540
32.434113
32.433838
32.433136
32.433014
32.432465
32.432159
32.438110
32.437775
32.437286
32.436890
32.436279
32.436432
32.436005
32.435364
32.435028
32.434265
32.440796
32.440063
32.439667
32.439392
32.438873
32.438446
32.438202
32.437775
32.437195
32.436859
32.442871
32.442169
32.442078
32.441589
32.441467
32.440857
32.440643
32.440033
32.439789
32.439392
32.445282
32.444611
32.444397
32.443878
32.443542
32.443115
32.442749
32.442352
32.441864
32.441711
32.447205
32.446899
32.446503
32.446045
32.445679
32.445160
32.444885
32.444611
32.444183
32.443634
32.449524
32.449097
32.448730
32.448151
32.447968
32.447540
32.447266
32.446991
32.446350
32.445984
32.451752
32.451324
32.450989
32.450500
32.450562
32.450165
32.449585
32.448975
32.448486
32.448120
32.453888
32.453369
32.453033
32.452606
32.452393
32.452148
32.451660
32.451111
32.450958
32.450745
32.433502
32.432953
32.432404
32.432129
32.431549
32.430817
32.430389
32.430298
32.429504
32.429077
32.435699
32.435303
32.434967
32.434326
32.434143
32.433533
32.433197
32.432770
32.432281
32.432068
32.437927
32.437653
32.436981
32.436646
32.436584
32.436035
32.435699
32.435211
32.434814
32.434235
32.440308
32.439911
32.439545
32.439178
32.438904
32.438446
32.437836
32.437744
32.437286
32.436615
32.442474
32.442383
32.441742
32.441620
32.441010
32.440887
32.440125
32.440002
32.439362
32.439178
32.445038
32.444580
32.444092
32.443573
32.443451
32.442932
32.442291
32.442444
32.441650
32.441498
32.447052
32.446899
32.446350
32.445892
32.445435
32.445251
32.444794
32.444611
32.444031
32.443542
32.449463
32.448944
32.448456
32.448151
32.447845
32.447388
32.446930
32.446838
32.446167
32.445923
32.451660
32.451019
32.450958
32.450500
32.450439
32.449646
32.449432
32.448883
32.448547
32.448120
32.453735
32.453186
32.452881
32.452637
32.452209
32.451965
32.451599
32.451080
32.450958
32.450500
32.432770
32.432526
32.432220
32.431732
32.431274
32.430847
32.430481
32.430084
32.429260
32.428955
32.435394
32.435120
32.434784
32.433990
32.433838
32.433502
32.432892
32.432373
32.432007
32.431610
32.437866
32.437500
32.437317
32.436371
32.436371
32.435974
32.435516
32.435028
32.434753
32.434021
32.439972
32.440002
32.439301
32.438843
32.438538
32.438446
32.437836
32.437378
32.437134
32.436493
32.442261
32.442078
32.441681
32.441559
32.440765
32.440765
32.439941
32.439850
32.439423
32.438904
32.444580
32.444458
32.443970
32.443665
32.443268
32.442963
32.442230
32.441895
32.441650
32.441437
32.446991
32.446655
32.446167
32.445709
32.445160
32.445221
32.444611
32.444275
32.443848
32.443481
32.449127
32.448669
32.448578
32.448059
32.447693
32.447205
32.446930
32.446289
32.446075
32.445465
32.451416
32.451050
32.450592
32.450623
32.450134
32.449493
32.449097
32.448578
32.448486
32.447906
32.453552
32.453094
32.453003
32.452393
32.452301
32.451843
32.451324
32.450958
32.450623
32.450378
32.432983
32.432465
32.432129
32.431793
32.431122
32.430573
32.430481
32.429688
32.429199
32.428864
32.435394
32.435059
32.434357
32.434174
32.433685
32.433289
32.432739
32.432465
32.432129
32.431610
32.437744
32.437256
32.436951
32.436462
32.436340
32.435883
32.435394
32.434906
32.434235
32.434143
32.439972
32.439819
32.439301
32.438965
32.438477
32.437958
32.437653
32.437195
32.436646
32.436676
32.442383
32.441895
32.441650
32.441254
32.440826
32.440186
32.439911
32.439514
32.439056
32.438904
32.444519
32.444153
32.443634
32.443451
32.443146
32.442780
32.442383
32.441681
32.441559
32.441193
32.446991
32.446350
32.445984
32.445648
32.444977
32.445099
32.444672
32.444122
32.443695
32.443420
32.449036
32.448517
32.448059
32.447845
32.447418
32.447083
32.447113
32.446350
32.446045
32.445404
32.451050
32.450928
32.450836
32.450409
32.449829
32.449432
32.449036
32.448486
32.448151
32.447906
32.453217
32.453156
32.452423
32.452179
32.452118
32.451630
32.451050
32.450775
32.450745
32.450287
32.432831
32.432220
32.432037
32.431488
32.430847
32.430359
32.430267
32.429382
32.429016
32.428680
32.435242
32.434814
32.434174
32.433899
32.433441
32.432861
32.432709
32.432159
32.431793
32.431122
32.437714
32.437256
32.436646
32.436371
32.435974
32.435486
32.435059
32.434937
32.434174
32.433929
32.440125
32.439423
32.439178
32.438782
32.438416
32.437897
32.437531
32.437225
32.436432
32.436340
32.442383
32.441620
32.441467
32.441040
32.440704
32.440155
32.440247
32.439331
32.439026
32.438690
32.444580
32.443939
32.443634
32.443390
32.442871
32.442322
32.442108
32.441681
32.441498
32.440918
32.446838
32.446167
32.445892
32.445312
32.445251
32.444702
32.444397
32.443909
32.443542
32.443420
32.448883
32.448486
32.448120
32.447754
32.447296
32.446960
32.446564
32.446350
32.445648
32.445251
32.451019
32.450928
32.450470
32.450165
32.449463
32.449127
32.448792
32.448517
32.448120
32.447662
32.453186
32.453033
32.452271
32.452087
32.452057
32.451508
32.450897
32.450623
32.450500
32.450012
32.432343
32.431854
32.431702
32.431366
32.430756
32.430328
32.429718
32.429260
32.428802
32.428741
32.434998
32.434784
32.434021
32.433838
32.433411
32.433014
32.432129
32.432068
32.431763
32.431244
32.437317
32.437195
32.436523
32.436340
32.435760
32.435242
32.434906
32.434540
32.434082
32.433655
32.439789
32.439331
32.438812
32.438599
32.438019
32.437836
32.437469
32.436981
32.436279
32.436340
32.441986
32.441650
32.441406
32.440948
32.440704
32.440033
32.439941
32.439362
32.438873
32.438477
32.444244
32.443817
32.443542
32.443298
32.442719
32.442261
32.441895
32.441772
32.441193
32.440887
32.446381
32.446136
32.445496
32.445190
32.445099
32.444611
32.444244
32.443787
32.443390
32.443268
32.448608
32.448425
32.447876
32.447601
32.447357
32.446960
32.446442
32.446167
32.445770
32.445251
32.451019
32.450653
32.450409
32.450012
32.449463
32.449188
32.448578
32.448120
32.448029
32.447449
32.453064
32.452881
32.452301
32.452179
32.451874
32.451111
32.450989
32.450592
32.450470
32.449982
32.432434
32.432068
32.431671
32.430847
32.430603
32.430328
32.429657
32.429077
32.428711
32.428345
32.434906
32.434174
32.434052
32.433594
32.433228
32.432770
32.432251
32.432037
32.431458
32.430725
32.437195
32.436615
32.436523
32.436188
32.435822
32.435272
32.434967
32.434357
32.434082
32.433502
32.439575
32.439117
32.438934
32.438599
32.437805
32.437592
32.437134
32.436646
32.436584
32.435913
32.441650
32.441589
32.441223
32.440643
32.440277
32.439880
32.439606
32.439117
32.438843
32.438446
32.444153
32.443665
32.443420
32.443085
32.442352
32.442352
32.441711
32.441498
32.441040
32.440735
32.446381
32.446014
32.445465
32.445129
32.444885
32.444550
32.443970
32.443665
32.443420
32.443054
32.448486
32.448151
32.447784
32.447357
32.446930
32.446869
32.446167
32.445862
32.445435
32.445282
32.450775
32.450714
32.450195
32.449738
32.449341
32.448883
32.448578
32.448212
32.447815
32.447418
32.452972
32.452515
32.452209
32.452087
32.451599
32.451050
32.451019
32.450378
32.450104
32.449493

SCALARS Alpha float 1
LOOKUP_TABLE default
-0.233180
-0.233181
-0.233183
-0.233183
-0.233187
-0.233189
-0.233189
-0.233192
-0.233193
-0.233194
-0.233170
-0.233174
-0.233172
-0.233176
-0.233177
-0.233178
-0.233182
-0.233180
-0.233184
-0.233185
-0.233163
-0.233166
-0.233167
-0.233168
-0.233167
-0.233169
-0.233170
-0.233173
-0.233175
-0.233177
-0.233155
-0.233157
-0.233156
-0.233158
-0.233161
-0.233162
-0.233163
-0.233165
-0.233168
-0.233168
-0.233145
-0.233148
-0.233150
-0.233150
-0.233152
-0.233154
-0.233154
-0.233156
-0.233157
-0.233159
-0.233139
-0.233140
-0.233140
-0.233141
-0.233143
-0.233145
-0.233146
-0.233148
-0.233149
-0.233150
-0.233128
-0.233131
-0.233133
-0.233133
-0.233137
-0.233136
-0.233137
-0.233138
-0.233140
-0.233141
-0.233123
-0.233124
-0.233125
-0.233126
-0.233128
-0.233128
-0.233132
-0.233131
-0.233131
-0.233134
-0.233114
-0.233117
-0.233117
-0.233116
-0.233118
-0.233121
-0.233122
-0.233123
-0.233124
-0.233125
-0.233106
-0.233107
-0.233113
-0.233109
-0.233111
-0.233115
-0.233115
-0.233116
-0.233117
-0.233118
-0.233180
-0.233181
-0.233184
-0.233185
-0.233188
-0.233190
-0.233191
-0.233192
-0.233193
-0.233196
-0.233172
-0.233174
-0.233174
-0.233176
-0.233178
-0.233180
-0.233180
-0.233182
-0.233183
-0.233185
-0.233164
-0.233165
-0.233166
-0.233166
-0.233168
-0.233169
-0.233172
-0.233174
-0.233175
-0.233177
-0.233156
-0.233157
-0.233157
-0.233160
-0.233162
-0.233161
-0.233165
-0.233166
-0.233166
-0.233167
-0.233145
-0.233149
-0.233149
-0.233151
-0.233152
-0.233155
-0.233157
-0.233155
-0.233157
-0.233159
-0.233137
-0.233140
-0.233142
-0.233142
-0.233144
-0.233145
-0.233146
-0.233149
-0.233150
-0.233150
-0.233130
-0.233131
-0.233132
-0.233134
-0.233135
-0.233139
-0.233139
-0.233141
-0.233143
-0.233142
-0.233122
-0.233123
-0.233125
-0.233124
-0.233128
-0.233129
-0.233131
-0.233132
-0.233134
-0.233134
-0.233115
-0.233116
-0.233118
-0.233118
-0.233119
-0.233121
-0.233122
-0.233124
-0.233125
-0.233126
-0.233106
-0.233109
-0.233110
-0.233112
-0.233112
-0.233113
-0.233117
-0.233114
-0.233117
-0.233118
-0.233181
-0.233182
-0.233185
-0.233188
-0.233188
-0.233189
-0.233192
-0.233192
-0.233194
-0.233196
-0.233173
-0.233173
-0.233175
-0.233177
-0.233179
-0.233180
-0.233181
-0.233183
-0.233185
-0.233188
-0.233163
-0.233166
-0.233166
-0.233167
-0.233168
-0.233170
-0.233174
-0.233173
-0.233176
-0.233178
-0.233155
-0.233154
-0.233158
-0.233160
-0.233162
-0.233163
-0.233165
-0.233167
-0.233166
-0.233168
-0.233147
-0.233149
-0.233149
-0.233153
-0.233154
-0.233155
-0.233155
-0.233157
-0.233158
-0.233161
-0.233138
-0.233140
-0.233142
-0.233143
-0.233144
-0.233146
-0.233147
-0.233152
-0.233150
-0.233152
-0.233131
-0.233132
-0.233134
-0.233134
-0.233135
-0.233139
-0.233139
-0.233140
-0.233141
-0.233143
-0.233123
-0.233123
-0.233126
-0.233128
-0.233127
-0.233130
-0.233130
-0.233132
-0.233133
-0.233137
-0.233117
-0.233116
-0.233118
-0.233116
-0.233119
-0.233122
-0.233124
-0.233124
-0.233126
-0.233129
-0.233106
-0.233111
-0.233110
-0.233111
-0.233113
-0.233114
-0.233116
-0.233116
-0.233117
-0.233118
-0.233181
-0.233184
-0.233184
-0.233188
-0.233189
-0.233190
-0.233191
-0.233192
-0.233195
-0.233197
-0.233173
-0.233175
-0.233176
-0.233178
-0.233178
-0.233180
-0.233181
-0.233184
-0.233186
-0.233187
-0.233166
-0.233167
-0.233168
-0.233167
-0.233169
-0.233171
-0.233172
-0.233173
-0.233175
-0.233179
-0.233157
-0.233156
-0.233159
-0.233162
-0.233162
-0.233164
-0.233165
-0.233166
-0.233167
-0.233168
-0.233147
-0.233149
-0.233150
-0.233152
-0.233155
-0.233156
-0.233157
-0.233156
-0.233160
-0.233164
-0.233138
-0.233140
-0.233141
-0.233143
-0.233145
-0.233145
-0.233148
-0.233149
-0.233151
-0.233151
-0.233130
-0.233132
-0.233135
-0.233134
-0.233137
-0.233139
-0.233140
-0.233141
-0.233143
-0.233142
-0.233124
-0.233125
-0.233126
-0.233128
-0.233128
-0.233129
-0.233132
-0.233133
-0.233134
-0.233135
-0.233117
-0.233117
-0.233119
-0.233120
-0.233120
-0.233121
-0.233122
-0.233124
-0.233127
-0.233128
-0.233108
-0.233111
-0.233110
-0.233112
-0.233114
-0.233114
-0.233116
-0.233116
-0.233116
-0.233119
-0.233182
-0.233183
-0.233185
-0.233187
-0.233190
-0.233191
-0.233193
-0.233193
-0.233196
-0.233198
-0.233173
-0.233176
-0.233177
-0.233178
-0.233179
-0.233181
-0.233181
-0.233183
-0.233186
-0.233188
-0.233166
-0.233167
-0.233168
-0.233167
-0.233169
-0.233172
-0.233173
-0.233174
-0.233178
-0.233180
-0.233155
-0.233157
-0.233160
-0.233163
-0.233163
-0.233163
-0.233167
-0.233165
-0.233169
-0.233169
-0.233149
-0.233150
-0.233150
-0.233153
-0.233155
-0.233156
-0.233154
-0.233157
-0.233159
-0.233160
-0.233140
-0.233142
-0.233142
-0.233143
-0.233146
-0.233147
-0.233150
-0.233149
-0.233153
-0.233153
-0.233132
-0.233133
-0.233135
-0.233134
-0.233138
-0.233139
-0.233139
-0.233141
-0.233143
-0.233145
-0.233125
-0.233125
-0.233126
-0.233127
-0.233130
-0.233130
-0.233132
-0.233133
-0.233135
-0.233136
-0.233115
-0.233118
-0.233118
-0.233120
-0.233121
-0.233123
-0.233123
-0.233124
-0.233127
-0.233127
-0.233109
-0.233111
-0.233111
-0.233112
-0.233114
-0.233117
-0.233116
-0.233117
-0.233118
-0.233119
-0.233183
-0.233185
-0.233187
-0.233189
-0.233189
-0.233192
-0.233192
-0.233194
-0.233197
-0.233198
-0.233173
-0.233176
-0.233177
-0.233179
-0.233180
-0.233180
-0.233183
-0.233185
-0.233187
-0.233190
-0.233166
-0.233166
-0.233168
-0.233169
-0.233171
-0.233173
-0.233174
-0.233177
-0.233176
-0.233179
-0.233157
-0.233159
-0.233161
-0.233163
-0.233163
-0.233164
-0.233166
-0.233167
-0.233167
-0.233170
-0.233152
-0.233150
-0.233152
-0.233153
-0.233153
-0.233157
-0.233157
-0.233159
-0.233163
-0.233161
-0.233140
-0.233141
-0.233142
-0.233145
-0.233145
-0.233147
-0.233149
-0.233150
-0.233152
-0.233153
-0.233132
-0.233134
-0.233137
-0.233137
-0.233138
-0.233139
-0.233140
-0.233143
-0.233143
-0.233144
-0.233124
-0.233126
-0.233129
-0.233127
-0.233132
-0.233131
-0.233132
-0.233133
-0.233136
-0.233138
-0.233116
-0.233117
-0.233119
-0.233120
-0.233123
-0.233123
-0.233124
-0.233125
-0.233128
-0.233128
-0.233111
-0.233110
-0.233112
-0.233115
-0.233114
-0.233117
-0.233117
-0.233118
-0.233119
-0.233121
-0.233185
-0.233185
-0.233187
-0.233189
-0.233190
-0.233191
-0.233196
-0.233196
-0.233198
-0.233199
-0.233173
-0.233176
-0.233179
-0.233179
-0.233181
-0.233181
-0.233184
-0.233185
-0.233187
-0.233189
-0.233167
-0.233166
-0.233168
-0.233168
-0.233173
-0.233173
-0.233173
-0.233177
-0.233179
-0.233180
-0.233156
-0.233161
-0.233163
-0.233162
-0.233164
-0.233166
-0.233166
-0.233168
-0.233168
-0.233168
-0.233150
-0.233151
-0.233151
-0.233154
-0.233155
-0.233156
-0.233156
-0.233159
-0.233163
-0.233163
-0.233141
-0.233144
-0.233142
-0.233145
-0.233146
-0.233147
-0.233149
-0.233152
-0.233153
-0.233154
-0.233132
-0.233134
-0.233134
-0.233138
-0.233139
-0.233139
-0.233141
-0.233142
-0.233144
-0.233144
-0.233125
-0.233126
-0.233127
-0.233129
-0.233131
-0.233132
-0.233132
-0.233135
-0.233134
-0.233138
-0.233117
-0.233117
-0.233118
-0.233120
-0.233122
-0.233124
-0.233125
-0.233126
-0.233128
-0.233129
-0.233111
-0.233110
-0.233112
-0.233114
-0.233114
-0.233115
-0.233117
-0.233118
-0.233118
-0.233122
-0.233183
-0.233186
-0.233188
-0.233189
-0.233191
-0.233192
-0.233194
-0.233198
-0.233198
-0.233199
-0.233175
-0.233178
-0.233179
-0.233180
-0.233181
-0.233182
-0.233185
-0.233186
-0.233189
-0.233187
-0.233166
-0.233169
-0.233168
-0.233169
-0.233174
-0.233173
-0.233175
-0.233178
-0.233180
-0.233180
-0.233157
-0.233160
-0.233160
-0.233165
-0.233163
-0.233167
-0.233167
-0.233168
-0.233170
-0.233171
-0.233149
-0.233153
-0.233153
-0.233155
-0.233156
-0.233156
-0.233158
-0.233159
-0.233161
-0.233163
-0.233142
-0.233142
-0.233145
-0.233146
-0.233149
-0.233149
-0.233150
-0.233152
-0.233155
-0.233155
-0.233134
-0.233136
-0.233135
-0.233138
-0.233139
-0.233139
-0.233142
-0.233143
-0.233145
-0.233146
-0.233125
-0.233127
-0.233127
-0.233129
-0.233131
-0.233131
-0.233134
-0.233135
-0.233136
-0.233138
-0.233118
-0.233118
-0.233120
-0.233122
-0.233123
-0.233123
-0.233125
-0.233128
-0.233128
-0.233130
-0.233111
-0.233110
-0.233115
-0.233114
-0.233118
-0.233116
-0.233118
-0.233117
-0.233119
-0.233122
-0.233185
-0.233188
-0.233190
-0.233189
-0.233193
-0.233193
-0.233194
-0.233195
-0.233199
-0.233201
-0.233176
-0.233178
-0.233179
-0.233181
-0.233182
-0.233184
-0.233184
-0.233188
-0.233189
-0.233191
-0.233167
-0.233167
-0.233170
-0.233173
-0.233172
-0.233175
-0.233176
-0.233179
-0.233180
-0.233180
-0.233160
-0.233162
-0.233162
-0.233164
-0.233164
-0.233165
-0.233167
-0.233168
-0.233169
-0.233172
-0.233151
-0.233152
-0.233154
-0.233154
-0.233156
-0.233157
-0.233160
-0.233164
-0.233161
-0.233164
-0.233143
-0.233143
-0.233145
-0.233145
-0.233149
-0.233150
-0.233151
-0.233151
-0.233153
-0.233155
-0.233133
-0.233136
-0.233138
-0.233138
-0.233139
-0.233141
-0.233143
-0.233143
-0.233146
-0.233145
-0.233125
-0.233128
-0.233129
-0.233131
-0.233131
-0.233132
-0.233134
-0.233135
-0.233139
-0.233138
-0.233118
-0.233119
-0.233122
-0.233122
-0.233124
-0.233126
-0.233127
-0.233129
-0.233128
-0.233131
-0.233109
-0.233111
-0.233113
-0.233114
-0.233116
-0.233117
-0.233118
-0.233120
-0.233120
-0.233121
-0.233186
-0.233186
-0.233190
-0.233189
-0.233193
-0.233193
-0.233195
-0.233198
-0.233199
-0.233200
-0.233176
-0.233179
-0.233180
-0.233180
-0.233181
-0.233184
-0.233186
-0.233188
-0.233190
-0.233191
-0.233168
-0.233168
-0.233169
-0.233172
-0.233173
-0.233177
-0.233177
-0.233178
-0.233180
-0.233181
-0.233160
-0.233162
-0.233163
-0.233164
-0.233167
-0.233167
-0.233168
-0.233170
-0.233170
-0.233173
-0.233151
-0.233153
-0.233153
-0.233157
-0.233155
-0.233157
-0.233161
-0.233163
-0.233163
-0.233163
-0.233142
-0.233144
-0.233144
-0.233147
-0.233150
-0.233151
-0.233152
-0.233153
-0.233155
-0.233155
-0.233135
-0.233134
-0.233138
-0.233139
-0.233139
-0.233141
-0.233142
-0.233147
-0.233146
-0.233147
-0.233125
-0.233128
-0.233129
-0.233131
-0.233132
-0.233134
-0.233135
-0.233135
-0.233138
-0.233138
-0.233119
-0.233119
-0.233122
-0.233123
-0.233124
-0.233125
-0.233126
-0.233128
-0.233129