# vtk DataFile Version 3.0
PINN prediction t=8937.9306640625
ASCII
DATASET UNSTRUCTURED_GRID
POINTS 1000 float
0.000000 0.000000 0.000000
0.000000 0.000000 0.044444
0.000000 0.000000 0.088889
0.000000 0.000000 0.133333
0.000000 0.000000 0.177778
0.000000 0.000000 0.222222
0.000000 0.000000 0.266667
0.000000 0.000000 0.311111
0.000000 0.000000 0.355556
0.000000 0.000000 0.400000
0.000000 0.088889 0.000000
0.000000 0.088889 0.044444
0.000000 0.088889 0.088889
0.000000 0.088889 0.133333
0.000000 0.088889 0.177778
0.000000 0.088889 0.222222
0.000000 0.088889 0.266667
0.000000 0.088889 0.311111
0.000000 0.088889 0.355556
0.000000 0.088889 0.400000
0.000000 0.177778 0.000000
0.000000 0.177778 0.044444
0.000000 0.177778 0.088889
0.000000 0.177778 0.133333
0.000000 0.177778 0.177778
0.000000 0.177778 0.222222
0.000000 0.177778 0.266667
0.000000 0.177778 0.311111
0.000000 0.177778 0.355556
0.000000 0.177778 0.400000
0.000000 0.266667 0.000000
0.000000 0.266667 0.044444
0.000000 0.266667 0.088889
0.000000 0.266667 0.133333
0.000000 0.266667 0.177778
0.000000 0.266667 0.222222
0.000000 0.266667 0.266667
0.000000 0.266667 0.311111
0.000000 0.266667 0.355556
0.000000 0.266667 0.400000
0.000000 0.355556 0.000000
0.000000 0.355556 0.044444
0.000000 0.355556 0.088889
0.000000 0.355556 0.133333
0.000000 0.355556 0.177778
0.000000 0.355556 0.222222
0.000000 0.355556 0.266667
0.000000 0.355556 0.311111
0.000000 0.355556 0.355556
0.000000 0.355556 0.400000
0.000000 0.444444 0.000000
0.000000 0.444444 0.044444
0.000000 0.444444 0.088889
0.000000 0.444444 0.133333
0.000000 0.444444 0.177778
0.000000 0.444444 0.222222
0.000000 0.444444 0.266667
0.000000 0.444444 0.311111
0.000000 0.444444 0.355556
0.000000 0.444444 0.400000
0.000000 0.533333 0.000000
0.000000 0.533333 0.044444
0.000000 0.533333 0.088889
0.000000 0.533333 0.133333
0.000000 0.533333 0.177778
0.000000 0.533333 0.222222
0.000000 0.533333 0.266667
0.000000 0.533333 0.311111
0.000000 0.533333 0.355556
0.000000 0.533333 0.400000
0.000000 0.622222 0.000000
0.000000 0.622222 0.044444
0.000000 0.622222 0.088889
0.000000 0.622222 0.133333
0.000000 0.622222 0.177778
0.000000 0.622222 0.222222
0.000000 0.622222 0.266667
0.000000 0.622222 0.311111
0.000000 0.622222 0.355556
0.000000 0.622222 0.400000
0.000000 0.711111 0.000000
0.000000 0.711111 0.044444
0.000000 0.711111 0.088889
0.000000 0.711111 0.133333
0.000000 0.711111 0.177778
0.000000 0.711111 0.222222
0.000000 0.711111 0.266667
0.000000 0.711111 0.311111
0.000000 0.711111 0.355556
0.000000 0.711111 0.400000
0.000000 0.800000 0.000000
0.000000 0.800000 0.044444
0.000000 0.800000 0.088889
0.000000 0.800000 0.133333
0.000000 0.800000 0.177778
0.000000 0.800000 0.222222
0.000000 0.800000 0.266667
0.000000 0.800000 0.311111
0.000000 0.800000 0.355556
0.000000 0.800000 0.400000
0.044444 0.000000 0.000000
0.044444 0.000000 0.044444
0.044444 0.000000 0.088889
0.044444 0.000000 0.133333
0.044444 0.000000 0.177778
0.044444 0.000000 0.222222
0.044444 0.000000 0.266667
0.044444 0.000000 0.311111
0.044444 0.000000 0.355556
0.044444 0.000000 0.400000
0.044444 0.088889 0.000000
0.044444 0.088889 0.044444
0.044444 0.088889 0.088889
0.044444 0.088889 0.133333
0.044444 0.088889 0.177778
0.044444 0.088889 0.222222
0.044444 0.088889 0.266667
0.044444 0.088889 0.311111
0.044444 0.088889 0.355556
0.044444 0.088889 0.400000
0.044444 0.177778 0.000000
0.044444 0.177778 0.044444
0.044444 0.177778 0.088889
0.044444 0.177778 0.133333
0.044444 0.177778 0.177778
0.044444 0.177778 0.222222
0.044444 0.177778 0.266667
0.044444 0.177778 0.311111
0.044444 0.177778 0.355556
0.044444 0.177778 0.400000
0.044444 0.266667 0.000000
0.044444 0.266667 0.044444
0.044444 0.266667 0.088889
0.044444 0.266667 0.133333
0.044444 0.266667 0.177778
0.044444 0.266667 0.222222
0.044444 0.266667 0.266667
0.044444 0.266667 0.311111
0.044444 0.266667 0.355556
0.044444 0.266667 0.400000
0.044444 0.355556 0.000000
0.044444 0.355556 0.044444
0.044444 0.355556 0.088889
0.044444 0.355556 0.133333
0.044444 0.355556 0.177778
0.044444 0.355556 0.222222
0.044444 0.355556 0.266667
0.044444 0.355556 0.311111
0.044444 0.355556 0.355556
0.044444 0.355556 0.400000
0.044444 0.444444 0.000000
0.044444 0.444444 0.044444
0.044444 0.444444 0.088889
0.044444 0.444444 0.133333
0.044444 0.444444 0.177778
0.044444 0.444444 0.222222
0.044444 0.444444 0.266667
0.044444 0.444444 0.311111
0.044444 0.444444 0.355556
0.044444 0.444444 0.400000
0.044444 0.533333 0.000000
0.044444 0.533333 0.044444
0.044444 0.533333 0.088889
0.044444 0.533333 0.133333
0.044444 0.533333 0.177778
0.044444 0.533333 0.222222
0.044444 0.533333 0.266667
0.044444 0.533333 0.311111
0.044444 0.533333 0.355556
0.044444 0.533333 0.400000
0.044444 0.622222 0.000000
0.044444 0.622222 0.044444
0.044444 0.622222 0.088889
0.044444 0.622222 0.133333
0.044444 0.622222 0.177778
0.044444 0.622222 0.222222
0.044444 0.622222 0.266667
0.044444 0.622222 0.311111
0.044444 0.622222 0.355556
0.044444 0.622222 0.400000
0.044444 0.711111 0.000000
0.044444 0.711111 0.044444
0.044444 0.711111 0.088889
0.044444 0.711111 0.133333
0.044444 0.711111 0.177778
0.044444 0.711111 0.222222
0.044444 0.711111 0.266667
0.044444 0.711111 0.311111
0.044444 0.711111 0.355556
0.044444 0.711111 0.400000
0.044444 0.800000 0.000000
0.044444 0.800000 0.044444
0.044444 0.800000 0.088889
0.044444 0.800000 0.133333
0.044444 0.800000 0.177778
0.044444 0.800000 0.222222
0.044444 0.800000 0.266667
0.044444 0.800000 0.311111
0.044444 0.800000 0.355556
0.044444 0.800000 0.400000
0.088889 0.000000 0.000000
0.088889 0.000000 0.044444
0.088889 0.000000 0.088889
0.088889 0.000000 0.133333
0.088889 0.000000 0.177778
0.088889 0.000000 0.222222
0.088889 0.000000 0.266667
0.088889 0.000000 0.311111
0.088889 0.000000 0.355556
0.088889 0.000000 0.400000
0.088889 0.088889 0.000000
0.088889 0.088889 0.044444
0.088889 0.088889 0.088889
0.088889 0.088889 0.133333
0.088889 0.088889 0.177778
0.088889 0.088889 0.222222
0.088889 0.088889 0.266667
0.088889 0.088889 0.311111
0.088889 0.088889 0.355556
0.088889 0.088889 0.400000
0.088889 0.177778 0.000000
0.088889 0.177778 0.044444
0.088889 0.177778 0.088889
0.088889 0.177778 0.133333
0.088889 0.177778 0.177778
0.088889 0.177778 0.222222
0.088889 0.177778 0.266667
0.088889 0.177778 0.311111
0.088889 0.177778 0.355556
0.088889 0.177778 0.400000
0.088889 0.266667 0.000000
0.088889 0.266667 0.044444
0.088889 0.266667 0.088889
0.088889 0.266667 0.133333
0.088889 0.266667 0.177778
0.088889 0.266667 0.222222
0.088889 0.266667 0.266667
0.088889 0.266667 0.311111
0.088889 0.266667 0.355556
0.088889 0.266667 0.400000
0.088889 0.355556 0.000000
0.088889 0.355556 0.044444
0.088889 0.355556 0.088889
0.088889 0.355556 0.133333
0.088889 0.355556 0.177778
0.088889 0.355556 0.222222
0.088889 0.355556 0.266667
0.088889 0.355556 0.311111
0.088889 0.355556 0.355556
0.088889 0.355556 0.400000
0.088889 0.444444 0.000000
0.088889 0.444444 0.044444
0.088889 0.444444 0.088889
0.088889 0.444444 0.133333
0.088889 0.444444 0.177778
0.088889 0.444444 0.222222
0.088889 0.444444 0.266667
0.088889 0.444444 0.311111
0.088889 0.444444 0.355556
0.088889 0.444444 0.400000
0.088889 0.533333 0.000000
0.088889 0.533333 0.044444
0.088889 0.533333 0.088889
0.088889 0.533333 0.133333
0.088889 0.533333 0.177778
0.088889 0.533333 0.222222
0.088889 0.533333 0.266667
0.088889 0.533333 0.311111
0.088889 0.533333 0.355556
0.088889 0.533333 0.400000
0.088889 0.622222 0.000000
0.088889 0.622222 0.044444
0.088889 0.622222 0.088889
0.088889 0.622222 0.133333
0.088889 0.622222 0.177778
0.088889 0.622222 0.222222
0.088889 0.622222 0.266667
0.088889 0.622222 0.311111
0.088889 0.622222 0.355556
0.088889 0.622222 0.400000
0.088889 0.711111 0.000000
0.088889 0.711111 0.044444
0.088889 0.711111 0.088889
0.088889 0.711111 0.133333
0.088889 0.711111 0.177778
0.088889 0.711111 0.222222
0.088889 0.711111 0.266667
0.088889 0.711111 0.311111
0.088889 0.711111 0.355556
0.088889 0.711111 0.400000
0.088889 0.800000 0.000000
0.088889 0.800000 0.044444
0.088889 0.800000 0.088889
0.088889 0.800000 0.133333
0.088889 0.800000 0.177778
0.088889 0.800000 0.222222
0.088889 0.800000 0.266667
0.088889 0.800000 0.311111
0.088889 0.800000 0.355556
0.088889 0.800000 0.400000
0.133333 0.000000 0.000000
0.133333 0.000000 0.044444
0.133333 0.000000 0.088889
0.133333 0.000000 0.133333
0.133333 0.000000 0.177778
0.133333 0.000000 0.222222
0.133333 0.000000 0.266667
0.133333 0.000000 0.311111
0.133333 0.000000 0.355556
0.133333 0.000000 0.400000
0.133333 0.088889 0.000000
0.133333 0.088889 0.044444
0.133333 0.088889 0.088889
0.133333 0.088889 0.133333
0.133333 0.088889 0.177778
0.133333 0.088889 0.222222
0.133333 0.088889 0.266667
0.133333 0.088889 0.311111
0.133333 0.088889 0.355556
0.133333 0.088889 0.400000
0.133333 0.177778 0.000000
0.133333 0.177778 0.044444
0.133333 0.177778 0.088889
0.133333 0.177778 0.133333
0.133333 0.177778 0.177778
0.133333 0.177778 0.222222
0.133333 0.177778 0.266667
0.133333 0.177778 0.311111
0.133333 0.177778 0.355556
0.133333 0.177778 0.400000
0.133333 0.266667 0.000000
0.133333 0.266667 0.044444
0.133333 0.266667 0.088889
0.133333 0.266667 0.133333
0.133333 0.266667 0.177778
0.133333 0.266667 0.222222
0.133333 0.266667 0.266667
0.133333 0.266667 0.311111
0.133333 0.266667 0.355556
0.133333 0.266667 0.400000
0.133333 0.355556 0.000000
0.133333 0.355556 0.044444
0.133333 0.355556 0.088889
0.133333 0.355556 0.133333
0.133333 0.355556 0.177778
0.133333 0.355556 0.222222
0.133333 0.355556 0.266667
0.133333 0.355556 0.311111
0.133333 0.355556 0.355556
0.133333 0.355556 0.400000
0.133333 0.444444 0.000000
0.133333 0.444444 0.044444
0.133333 0.444444 0.088889
0.133333 0.444444 0.133333
0.133333 0.444444 0.177778
0.133333 0.444444 0.222222
0.133333 0.444444 0.266667
0.133333 0.444444 0.311111
0.133333 0.444444 0.355556
0.133333 0.444444 0.400000
0.133333 0.533333 0.000000
0.133333 0.533333 0.044444
0.133333 0.533333 0.088889
0.133333 0.533333 0.133333
0.133333 0.533333 0.177778
0.133333 0.533333 0.222222
[...]
POINT_DATA 1000
SCALARS Temperature float 1
LOOKUP_TABLE default
15.068176
15.068481
15.068817
15.069122
15.069458
15.069763
15.070068
15.070404
15.070709
15.071045
15.061157
15.061493
15.061829
15.062164
15.062500
15.062836
15.063141
15.063477
15.063812
15.064148
15.053925
15.054291
15.054626
15.054962
15.055298
15.055664
15.056000
15.056335
15.056671
15.057037
15.046478
15.046844
15.047180
15.047546
15.047913
15.048248
15.048615
15.048981
15.049316
15.049683
15.038757
15.039154
15.039520
15.039886
15.040253
15.040619
15.040985
15.041382
15.041748
15.042114
15.030853
15.031219
15.031616
15.031982
15.032379
15.032776
15.033173
15.033539
15.033936
15.034302
15.022675
15.023041
15.023468
15.023865
15.024261
15.024658
15.025055
15.025452
15.025848
15.026245
15.014221
15.014648
15.015045
15.015472
15.015900
15.016296
15.016724
15.017120
15.017548
15.017944
15.005524
15.005981
15.006409
15.006836
15.007263
15.007690
15.008118
15.008545
15.008972
15.009399
14.996582
14.997040
14.997498
14.997925
14.998383
14.998840
14.999268
14.999695
15.000153
15.000580
15.068451
15.068756
15.069092
15.069397
15.069733
15.070038
15.070343
15.070679
15.070984
15.071289
15.061432
15.061768
15.062103
15.062439
15.062775
15.063110
15.063416
15.063751
15.064087
15.064423
15.054230
15.054565
15.054901
15.055267
15.055603
15.055939
15.056274
15.056610
15.056976
15.057312
15.046783
15.047119
15.047485
15.047852
15.048187
15.048553
15.048920
15.049286
15.049622
15.049988
15.039093
15.039459
15.039825
15.040192
15.040558
15.040924
15.041321
15.041687
15.042053
15.042419
15.031158
15.031525
15.031921
15.032318
15.032715
15.033081
15.033478
15.033844
15.034241
15.034637
15.022980
15.023376
15.023773
15.024200
15.024597
15.024994
15.025391
15.025787
15.026184
15.026581
15.014557
15.014984
15.015411
15.015808
15.016235
15.016632
15.017059
15.017487
15.017883
15.018280
15.005890
15.006317
15.006744
15.007172
15.007599
15.008057
15.008453
15.008911
15.009338
15.009735
14.996948
14.997406
14.997833
14.998291
14.998749
14.999176
14.999634
15.000061
15.000519
15.000946
15.068695
15.069031
15.069336
15.069672
15.069977
15.070312
15.070618
15.070953
15.071259
15.071564
15.061737
15.062042
15.062408
15.062714
15.063049
15.063385
15.063721
15.064026
15.064362
15.064697
15.054504
15.054871
15.055206
15.055542
15.055878
15.056244
15.056580
15.056915
15.057251
15.057617
15.047058
15.047424
15.047791
15.048157
15.048492
15.048859
15.049225
15.049561
15.049927
15.050293
15.039398
15.039764
15.040131
15.040497
15.040894
15.041260
15.041626
15.041992
15.042358
15.042725
15.031494
15.031860
15.032257
15.032623
15.033020
15.033417
15.033783
15.034180
15.034576
15.034943
15.023315
15.023712
15.024109
15.024506
15.024933
15.025330
15.025726
15.026123
15.026520
15.026917
15.014923
15.015320
15.015747
15.016174
15.016571
15.016968
15.017395
15.017822
15.018219
15.018646
15.006256
15.006683
15.007111
15.007538
15.007965
15.008392
15.008820
15.009247
15.009674
15.010101
14.997314
14.997772
14.998199
14.998657
14.999115
14.999542
15.000000
15.000427
15.000885
15.001312
15.069000
15.069305
15.069611
15.069946
15.070251
15.070587
15.070892
15.071198
15.071533
15.071838
15.062012
15.062347
15.062683
15.062988
15.063324
15.063660
15.063995
15.064331
15.064667
15.064972
15.054810
15.055145
15.055481
15.055847
15.056183
15.056519
15.056854
15.057220
15.057556
15.057892
15.047363
15.047729
15.048096
15.048431
15.048798
15.049164
15.049530
15.049866
15.050232
15.050568
15.039703
15.040070
15.040466
15.040833
15.041199
15.041565
15.041931
15.042297
15.042664
15.043030
15.031799
15.032196
15.032593
15.032959
15.033356
15.033722
15.034119
15.034515
15.034882
15.035248
15.023651
15.024048
15.024445
15.024841
15.025238
15.025635
15.026062
15.026459
15.026825
15.027222
15.015259
15.015656
15.016083
15.016510
15.016907
15.017334
15.017731
15.018158
15.018555
15.018982
15.006592
15.007019
15.007446
15.007904
15.008301
15.008728
15.009186
15.009613
15.010010
15.010437
14.997681
14.998138
14.998566
14.999023
14.999451
14.999908
15.000336
15.000793
15.001221
15.001678
15.069275
15.069580
15.069885
15.070221
15.070526
15.070831
15.071167
15.071472
15.071777
15.072113
15.062286
15.062622
15.062958
15.063293
15.063599
15.063934
15.064270
15.064606
15.064911
15.065247
15.055115
15.055450
15.055786
15.056122
15.056458
15.056824
15.057159
15.057495
15.057831
15.058167
15.047699
15.048035
15.048401
15.048737
15.049103
15.049469
15.049805
15.050171
15.050537
15.050873
15.040009
15.040375
15.040741
15.041138
15.041504
15.041870
15.042236
15.042603
15.042969
15.043335
15.032104
15.032501
15.032898
15.033264
15.033661
15.034027
15.034424
15.034821
15.035187
15.035583
15.023987
15.024384
15.024780
15.025177
15.025574
15.025970
15.026367
15.026764
15.027161
15.027557
15.015594
15.016022
15.016418
15.016846
15.017242
15.017670
15.018066
15.018494
15.018890
15.019287
15.006958
15.007385
15.007812
15.008240
15.008667
15.009094
15.009521
15.009949
15.010376
15.010803
14.998047
14.998474
14.998932
14.999390
14.999817
15.000275
15.000702
15.001129
15.001587
15.002045
15.069519
15.069855
15.070160
15.070465
15.070801
15.071106
15.071442
15.071747
15.072052
15.072388
15.062561
15.062897
15.063232
15.063568
15.063904
15.064240
15.064545
15.064880
15.065216
15.065521
15.055389
15.055725
15.056091
15.056427
15.056763
15.057098
15.057434
15.057800
15.058136
15.058472
15.047974
15.048340
15.048676
15.049042
15.049408
15.049774
15.050110
15.050476
15.050812
15.051178
15.040314
15.040680
15.041077
15.041443
15.041809
15.042175
15.042542
15.042908
15.043274
15.043640
15.032440
15.032837
15.033203
15.033600
15.033966
15.034363
15.034760
15.035126
15.035522
15.035889
15.024323
15.024719
15.025116
15.025513
15.025909
15.026306
15.026703
15.027100
15.027496
15.027893
15.015930
15.016357
15.016754
15.017181
15.017578
15.018005
15.018402
15.018829
15.019226
15.019653
15.007294
15.007721
15.008148
15.008575
15.009003
15.009430
15.009857
15.010284
15.010712
15.011139
14.998413
14.998840
14.999298
14.999756
15.000183
15.000610
15.001068
15.001495
15.001953
15.002380
15.069794
15.070129
15.070435
15.070770
15.071075
15.071411
15.071716
15.072021
15.072327
15.072662
15.062866
15.063171
15.063507
15.063843
15.064178
15.064514
15.064819
15.065155
15.065491
15.065796
15.055695
15.056030
15.056366
15.056702
15.057037
15.057404
15.057739
15.058075
15.058411
15.058746
15.048279
15.048645
15.048981
15.049347
15.049713
15.050049
15.050415
15.050751
15.051117
15.051483
15.040649
15.041016
15.041382
15.041748
15.042114
15.042480
15.042847
15.043213
15.043610
15.043945
15.032776
15.033142
15.033539
15.033905
15.034302
15.034698
15.035065
15.035431
15.035828
15.036224
15.024658
15.025055
15.025452
15.025848
15.026245
15.026642
15.027039
15.027435
15.027832
15.028229
15.016266
15.016693
15.017090
15.017517
15.017914
15.018341
15.018768
15.019165
15.019562
15.019989
15.007660
15.008087
15.008514
15.008942
15.009369
15.009796
15.010223
15.010651
15.011047
15.011505
14.998779
14.999207
14.999664
15.000092
15.000549
15.000977
15.001434
15.001862
15.002289
15.002747
15.070068
15.070404
15.070709
15.071014
15.071350
15.071655
15.071960
15.072266
15.072601
15.072906
15.063141
15.063477
15.063812
15.064117
15.064453
15.064789
15.065094
15.065430
15.065765
15.066071
15.055969
15.056305
15.056641
15.056976
15.057343
15.057678
15.058014
15.058350
15.058685
15.059021
15.048584
15.048920
15.049286
15.049652
15.049988
15.050354
15.050690
15.051056
15.051422
15.051758
15.040955
15.041321
15.041687
15.042053
15.042419
15.042786
15.043152
15.043518
15.043884
15.044250
15.033081
15.033478
15.033844
15.034241
15.034607
15.035004
15.035370
15.035767
15.036133
15.036530
15.024963
15.025360
15.025757
15.026154
15.026581
15.026947
15.027344
15.027740
15.028137
15.028534
15.016632
15.017029
15.017456
15.017853
15.018250
15.018677
15.019073
15.019501
15.019897
15.020325
15.007996
15.008423
15.008850
15.009277
15.009705
15.010132
15.010559
15.010986
15.011414
15.011841
14.999115
14.999573
15.000031
15.000458
15.000916
15.001343
15.001770
15.002228
15.002655
15.003113
15.070343
15.070679
15.070984
15.071289
15.071625
15.071930
15.072235
15.072540
15.072876
15.073181
15.063416
15.063751
15.064087
15.064392
15.064728
15.065063
15.065369
15.065704
15.066040
15.066376
15.056274
15.056610
15.056946
15.057281
15.057617
15.057983
15.058319
15.058655
15.058990
15.059326
15.048889
15.049225
15.049591
15.049957
15.050293
15.050659
15.050995
15.051361
15.051697
15.052063
15.041260
15.041626
15.041992
15.042358
15.042725
15.043121
15.043488
15.043823
15.044189
15.044556
15.033417
15.033783
15.034149
15.034546
15.034943
15.035309
15.035706
15.036072
15.036469
15.036835
15.025299
15.025696
15.026093
15.026489
15.026886
15.027283
15.027679
15.028076
15.028473
15.028870
15.016968
15.017365
15.017792
15.018188
15.018585
15.019012
15.019409
15.019836
15.020233
15.020660
15.008362
15.008789
15.009216
15.009644
15.010071
15.010468
15.010895
15.011322
15.011749
15.012177
14.999512
14.999939
15.000366
15.000824
15.001251
15.001709
15.002136
15.002563
15.003021
15.003448
15.070618
15.070953
15.071259
15.071564
15.071869
15.072205
15.072510
15.072815
15.073151
15.073456
15.063690
15.064026
15.064362
15.064697
15.065002
15.065338
15.065643
15.065979
15.066315
15.066620
15.056549
15.056885
15.057220
15.057587
15.057922
15.058258
15.058594
15.058929
15.059296
15.059601
15.049194
15.049530
15.049896
15.050232
15.050598
15.050934
15.051300
15.051666
15.052002
15.052338
15.041565
15.041931
15.042297
15.042664
15.043030
15.043396
15.043762
15.044128
15.044495
15.044861
15.033722
15.034119
15.034485
15.034882
15.035248
15.035645
15.036011
15.036407
15.036774
15.037140
15.025635
15.026031
15.026428
15.026825
15.027222
15.027618
15.028015
15.028412
15.028809
15.029175
15.017303
15.017700
15.018127
15.018524
15.018951
15.019348
15.019745
15.020172
15.020569
15.020996
15.008698
15.009125
15.009552
15.009979
15.010406
15.010834
15.011261
15.011688
15.012115
15.012512
14.999847
15.000305
15.000732
15.001190
15.001617
15.002045
15.002502
15.002930
15.003357
15.003815

SCALARS Alpha float 1
LOOKUP_TABLE default
0.053335
0.053336
0.053336
0.053337
0.053338
0.053339
0.053339
0.053340
0.053341
0.053341
0.053332
0.053332
0.053333
0.053334
0.053335
0.053335
0.053336
0.053337
0.053337
0.053338
0.053328
0.053329
0.053330
0.053331
0.053331
0.053332
0.053333
0.053333
0.053334
0.053335
0.053325
0.053326
0.053326
0.053327
0.053328
0.053328
0.053329
0.053330
0.053331
0.053331
0.053321
0.053322
0.053323
0.053323
0.053324
0.053325
0.053325
0.053326
0.053327
0.053328
0.053317
0.053318
0.053319
0.053319
0.053320
0.053321
0.053322
0.053322
0.053323
0.053324
0.053313
0.053314
0.053315
0.053316
0.053316
0.053317
0.053318
0.053318
0.053319
0.053320
0.053309
0.053310
0.053311
0.053311
0.053312
0.053313
0.053314
0.053314
0.053315
0.053316
0.053305
0.053306
0.053306
0.053307
0.053308
0.053309
0.053309
0.053310
0.053311
0.053312
0.053300
0.053301
0.053302
0.053303
0.053303
0.053304
0.053305
0.053306
0.053306
0.053307
0.053335
0.053336
0.053337
0.053337
0.053338
0.053339
0.053339
0.053340
0.053341
0.053342
0.053332
0.053333
0.053333
0.053334
0.053335
0.053335
0.053336
0.053337
0.053338
0.053338
0.053329
0.053329
0.053330
0.053331
0.053331
0.053332
0.053333
0.053334
0.053334
0.053335
0.053325
0.053326
0.053326
0.053327
0.053328
0.053329
0.053329
0.053330
0.053331
0.053331
0.053321
0.053322
0.053323
0.053324
0.053324
0.053325
0.053326
0.053326
0.053327
0.053328
0.053318
0.053318
0.053319
0.053320
0.053320
0.053321
0.053322
0.053323
0.053323
0.053324
0.053314
0.053314
0.053315
0.053316
0.053317
0.053317
0.053318
0.053319
0.053319
0.053320
0.053309
0.053310
0.053311
0.053312
0.053312
0.053313
0.053314
0.053315
0.053315
0.053316
0.053305
0.053306
0.053307
0.053307
0.053308
0.053309
0.053310
0.053310
0.053311
0.053312
0.053301
0.053301
0.053302
0.053303
0.053304
0.053304
0.053305
0.053306
0.053307
0.053307
0.053335
0.053336
0.053337
0.053337
0.053338
0.053339
0.053340
0.053340
0.053341
0.053342
0.053332
0.053333
0.053334
0.053334
0.053335
0.053336
0.053336
0.053337
0.053338
0.053339
0.053329
0.053330
0.053330
0.053331
0.053332
0.053332
0.053333
0.053334
0.053335
0.053335
0.053325
0.053326
0.053327
0.053327
0.053328
0.053329
0.053330
0.053330
0.053331
0.053332
0.053322
0.053322
0.053323
0.053324
0.053324
0.053325
0.053326
0.053327
0.053328
0.053328
0.053318
0.053319
0.053319
0.053320
0.053321
0.053321
0.053322
0.053323
0.053324
0.053324
0.053314
0.053315
0.053315
0.053316
0.053317
0.053317
0.053318
0.053319
0.053320
0.053320
0.053310
0.053310
0.053311
0.053312
0.053313
0.053313
0.053314
0.053315
0.053316
0.053316
0.053305
0.053306
0.053307
0.053308
0.053308
0.053309
0.053310
0.053311
0.053311
0.053312
0.053301
0.053302
0.053303
0.053303
0.053304
0.053305
0.053305
0.053306
0.053307
0.053308
0.053335
0.053336
0.053337
0.053338
0.053338
0.053339
0.053340
0.053341
0.053341
0.053342
0.053332
0.053333
0.053334
0.053334
0.053335
0.053336
0.053337
0.053337
0.053338
0.053339
0.053329
0.053330
0.053330
0.053331
0.053332
0.053333
0.053333
0.053334
0.053335
0.053335
0.053325
0.053326
0.053327
0.053328
0.053328
0.053329
0.053330
0.053331
0.053331
0.053332
0.053322
0.053323
0.053323
0.053324
0.053325
0.053325
0.053326
0.053327
0.053328
0.053328
0.053318
0.053319
0.053320
0.053320
0.053321
0.053322
0.053322
0.053323
0.053324
0.053325
0.053314
0.053315
0.053316
0.053316
0.053317
0.053318
0.053318
0.053319
0.053320
0.053321
0.053310
0.053311
0.053311
0.053312
0.053313
0.053314
0.053314
0.053315
0.053316
0.053317
0.053306
0.053306
0.053307
0.053308
0.053309
0.053309
0.053310
0.053311
0.053312
0.053312
0.053301
0.053302
0.053303
0.053304
0.053304
0.053305
0.053306
0.053306
0.053307
0.053308
0.053336
0.053337
0.053337
0.053338
0.053339
0.053339
0.053340
0.053341
0.053341
0.053342
0.053333
0.053333
0.053334
0.053335
0.053335
0.053336
0.053337
0.053337
0.053338
0.053339
0.053329
0.053330
0.053331
0.053332
0.053332
0.053333
0.053333
0.053334
0.053335
0.053336
0.053326
0.053326
0.053327
0.053328
0.053329
0.053329
0.053330
0.053331
0.053332
0.053332
0.053322
0.053323
0.053323
0.053324
0.053325
0.053326
0.053326
0.053327
0.053328
0.053329
0.053318
0.053319
0.053320
0.053320
0.053321
0.053322
0.053323
0.053323
0.053324
0.053325
0.053314
0.053315
0.053316
0.053317
0.053317
0.053318
0.053319
0.053319
0.053320
0.053321
0.053310
0.053311
0.053312
0.053312
0.053313
0.053314
0.053315
0.053315
0.053316
0.053317
0.053306
0.053307
0.053307
0.053308
0.053309
0.053310
0.053310
0.053311
0.053312
0.053313
0.053301
0.053302
0.053303
0.053304
0.053305
0.053305
0.053306
0.053307
0.053307
0.053308
0.053336
0.053337
0.053337
0.053338
0.053339
0.053340
0.053340
0.053341
0.053342
0.053342
0.053333
0.053333
0.053334
0.053335
0.053336
0.053336
0.053337
0.053338
0.053338
0.053339
0.053329
0.053330
0.053331
0.053332
0.053332
0.053333
0.053334
0.053334
0.053335
0.053336
0.053326
0.053327
0.053327
0.053328
0.053329
0.053330
0.053330
0.053331
0.053332
0.053332
0.053322
0.053323
0.053324
0.053324
0.053325
0.053326
0.053327
0.053327
0.053328
0.053329
0.053318
0.053319
0.053320
0.053321
0.053321
0.053322
0.053323
0.053324
0.053324
0.053325
0.053315
0.053315
0.053316
0.053317
0.053317
0.053318
0.053319
0.053320
0.053320
0.053321
0.053310
0.053311
0.053312
0.053313
0.053313
0.053314
0.053315
0.053315
0.053316
0.053317
0.053306
0.053307
0.053308
0.053308
0.053309
0.053310
0.053311
0.053311
0.053312
0.053313
0.053302
0.053302
0.053303
0.053304
0.053305
0.053305
0.053306
0.053307
0.053308
0.053308
0.053336
0.053337
0.053338
0.053338
0.053339
0.053340
0.053340
0.053341
0.053342
0.053342
0.053333
0.053334
0.053334
0.053335
0.053336
0.053337
0.053337
0.053338
0.053339
0.053339
0.053330
0.053330
0.053331
0.053332
0.053332
0.053333
0.053334
0.053335
0.053335
0.053336
0.053326
0.053327
0.053328
0.053328
0.053329
0.053330
0.053330
0.053331
0.053332
0.053333
0.053322
0.053323
0.053324
0.053325
0.053325
0.053326
0.053327
0.053328
0.053328
0.053329
0.053319
0.053319
0.053320
0.053321
0.053322
0.053322
0.053323
0.053324
0.053325
0.053325
0.053315
0.053316
0.053316
0.053317
0.053318
0.053318
0.053319
0.053320
0.053321
0.053321
0.053311
0.053311
0.053312
0.053313
0.053314
0.053314
0.053315
0.053316
0.053317
0.053317
0.053306
0.053307
0.053308
0.053309
0.053309
0.053310
0.053311
0.053312
0.053312
0.053313
0.053302
0.053303
0.053303
0.053304
0.053305
0.053306
0.053306
0.053307
0.053308
0.053309
0.053336
0.053337
0.053338
0.053338
0.053339
0.053340
0.053341
0.053341
0.053342
0.053343
0.053333
0.053334
0.053335
0.053335
0.053336
0.053337
0.053337
0.053338
0.053339
0.053340
0.053330
0.053331
0.053331
0.053332
0.053333
0.053333
0.053334
0.053335
0.053336
0.053336
0.053326
0.053327
0.053328
0.053329
0.053329
0.053330
0.053331
0.053331
0.053332
0.053333
0.053323
0.053323
0.053324
0.053325
0.053326
0.053326
0.053327
0.053328
0.053329
0.053329
0.053319
0.053320
0.053320
0.053321
0.053322
0.053323
0.053323
0.053324
0.053325
0.053325
0.053315
0.053316
0.053316
0.053317
0.053318
0.053319
0.053319
0.053320
0.053321
0.053322
0.053311
0.053312
0.053312
0.053313
0.053314
0.053315
0.053315
0.053316
0.053317
0.053318
0.053307
0.053307
0.053308
0.053309
0.053310
0.053310
0.053311
0.053312
0.053313
0.053313
0.053302
0.053303
0.053304
0.053305
0.053305
0.053306
0.053307
0.053307
0.053308
0.053309
0.053337
0.053337
0.053338
0.053339
0.053339
0.053340
0.053341
0.053342
0.053342
0.053343
0.053333
0.053334
0.053335
0.053336
0.053336
0.053337
0.053338
0.053338
0.053339
0.053340
0.053330
0.053331
0.053331
0.053332
0.053333
0.053334
0.053334
0.053335
0.053336
0.053337
0.053327
0.053327
0.053328
0.053329
0.053330
0.053330
0.053331
0.053332
0.053332
0.053333
0.053323
0.053324
0.053324
0.053325
0.053326
0.053327
0.053327
0.053328
0.053329
0.053329
0.053319
0.053320
0.053321
0.053321
0.053322
0.053323
0.053324
0.053324
0.053325
0.053326
0.053315
0.053316
0.053317
0.053318
0.053318
0.053319
0.053320
0.053320
0.053321
0.053322
0.053311
0.053312
0.053313
0.053313
0.053314
0.053315
0.053316
0.053316
0.053317
0.053318
0.053307
0.053308
0.053308
0.053309
0.053310
0.053311
0.053311
0.053312
0.053313
0.053314
0.053302
0.053303
0.053304
0.053305
0.053305
0.053306
0.053307
0.053308
0.053308
0.053309
0.053337
0.053338
0.053338
0.053339
0.053340
0.053340
0.053341
0.053342
0.053342
0.053343
0.053334
0.053334
0.053335
0.053336
0.053336
0.053337
0.053338
0.053339
0.053339
0.053340
0.053330
0.053331
0.053332
0.053332
0.053333
0.053334
0.053335
0.053335
0.053336
0.053337
0.053327
0.053328
0.053328
0.053329
0.053330
0.053330
0.053331
0.053332
0.053333
0.053333
0.053323
0.053324
0.053325
0.053325
0.053326
0.053327
0.053328
0.053328
0.053329
0.053330
0.053319
0.053320
0.053321
0.053322
0.053322
0.053323
0.053324
0.053325
0.053325
0.053326
0.053316
0.053316
0.053317
0.053318
0.053318
0.053319
0.053320
0.053321
0.053321
0.053322
0.053311
0.053312
0.053313
0.053314
0.053314
0.053315
0.053316
0.053316
0.053317
0.053318
0.053307
0.053308
0.053309
0.053309
0.053310
0.053311
0.053312
0.053312
0.053313
0.053314
0.053303
0.053304
0.053304
0.053305
0.053306
0.053306
0.053307
0.053308
0.053309
0.053309
