# vtk DataFile Version 3.0
PINN prediction t=2979.310302734375
ASCII
DATASET UNSTRUCTURED_GRID
POINTS 1000 float
0.000000 0.000000 0.000000
0.000000 0.000000 0.044444
0.000000 0.000000 0.088889
0.000000 0.000000 0.133333
0.000000 0.000000 0.177778
0.000000 0.000000 0.222222
0.000000 0.000000 0.266667
0.000000 0.000000 0.311111
0.000000 0.000000 0.355556
0.000000 0.000000 0.400000
0.000000 0.088889 0.000000
0.000000 0.088889 0.044444
0.000000 0.088889 0.088889
0.000000 0.088889 0.133333
0.000000 0.088889 0.177778
0.000000 0.088889 0.222222
0.000000 0.088889 0.266667
0.000000 0.088889 0.311111
0.000000 0.088889 0.355556
0.000000 0.088889 0.400000
0.000000 0.177778 0.000000
0.000000 0.177778 0.044444
0.000000 0.177778 0.088889
0.000000 0.177778 0.133333
0.000000 0.177778 0.177778
0.000000 0.177778 0.222222
0.000000 0.177778 0.266667
0.000000 0.177778 0.311111
0.000000 0.177778 0.355556
0.000000 0.177778 0.400000
0.000000 0.266667 0.000000
0.000000 0.266667 0.044444
0.000000 0.266667 0.088889
0.000000 0.266667 0.133333
0.000000 0.266667 0.177778
0.000000 0.266667 0.222222
0.000000 0.266667 0.266667
0.000000 0.266667 0.311111
0.000000 0.266667 0.355556
0.000000 0.266667 0.400000
0.000000 0.355556 0.000000
0.000000 0.355556 0.044444
0.000000 0.355556 0.088889
0.000000 0.355556 0.133333
0.000000 0.355556 0.177778
0.000000 0.355556 0.222222
0.000000 0.355556 0.266667
0.000000 0.355556 0.311111
0.000000 0.355556 0.355556
0.000000 0.355556 0.400000
0.000000 0.444444 0.000000
0.000000 0.444444 0.044444
0.000000 0.444444 0.088889
0.000000 0.444444 0.133333
0.000000 0.444444 0.177778
0.000000 0.444444 0.222222
0.000000 0.444444 0.266667
0.000000 0.444444 0.311111
0.000000 0.444444 0.355556
0.000000 0.444444 0.400000
0.000000 0.533333 0.000000
0.000000 0.533333 0.044444
0.000000 0.533333 0.088889
0.000000 0.533333 0.133333
0.000000 0.533333 0.177778
0.000000 0.533333 0.222222
0.000000 0.533333 0.266667
0.000000 0.533333 0.311111
0.000000 0.533333 0.355556
0.000000 0.533333 0.400000
0.000000 0.622222 0.000000
0.000000 0.622222 0.044444
0.000000 0.622222 0.088889
0.000000 0.622222 0.133333
0.000000 0.622222 0.177778
0.000000 0.622222 0.222222
0.000000 0.622222 0.266667
0.000000 0.622222 0.311111
0.000000 0.622222 0.355556
0.000000 0.622222 0.400000
0.000000 0.711111 0.000000
0.000000 0.711111 0.044444
0.000000 0.711111 0.088889
0.000000 0.711111 0.133333
0.000000 0.711111 0.177778
0.000000 0.711111 0.222222
0.000000 0.711111 0.266667
0.000000 0.711111 0.311111
0.000000 0.711111 0.355556
0.000000 0.711111 0.400000
0.000000 0.800000 0.000000
0.000000 0.800000 0.044444
0.000000 0.800000 0.088889
0.000000 0.800000 0.133333
0.000000 0.800000 0.177778
0.000000 0.800000 0.222222
0.000000 0.800000 0.266667
0.000000 0.800000 0.311111
0.000000 0.800000 0.355556
0.000000 0.800000 0.400000
0.044444 0.000000 0.000000
0.044444 0.000000 0.044444
0.044444 0.000000 0.088889
0.044444 0.000000 0.133333
0.044444 0.000000 0.177778
0.044444 0.000000 0.222222
0.044444 0.000000 0.266667
0.044444 0.000000 0.311111
0.044444 0.000000 0.355556
0.044444 0.000000 0.400000
0.044444 0.088889 0.000000
0.044444 0.088889 0.044444
0.044444 0.088889 0.088889
0.044444 0.088889 0.133333
0.044444 0.088889 0.177778
0.044444 0.088889 0.222222
0.044444 0.088889 0.266667
0.044444 0.088889 0.311111
0.044444 0.088889 0.355556
0.044444 0.088889 0.400000
0.044444 0.177778 0.000000
0.044444 0.177778 0.044444
0.044444 0.177778 0.088889
0.044444 0.177778 0.133333
0.044444 0.177778 0.177778
0.044444 0.177778 0.222222
0.044444 0.177778 0.266667
0.044444 0.177778 0.311111
0.044444 0.177778 0.355556
0.044444 0.177778 0.400000
0.044444 0.266667 0.000000
0.044444 0.266667 0.044444
0.044444 0.266667 0.088889
0.044444 0.266667 0.133333
0.044444 0.266667 0.177778
0.044444 0.266667 0.222222
0.044444 0.266667 0.266667
0.044444 0.266667 0.311111
0.044444 0.266667 0.355556
0.044444 0.266667 0.400000
0.044444 0.355556 0.000000
0.044444 0.355556 0.044444
0.044444 0.355556 0.088889
0.044444 0.355556 0.133333
0.044444 0.355556 0.177778
0.044444 0.355556 0.222222
0.044444 0.355556 0.266667
0.044444 0.355556 0.311111
0.044444 0.355556 0.355556
0.044444 0.355556 0.400000
0.044444 0.444444 0.000000
0.044444 0.444444 0.044444
0.044444 0.444444 0.088889
0.044444 0.444444 0.133333
0.044444 0.444444 0.177778
0.044444 0.444444 0.222222
0.044444 0.444444 0.266667
0.044444 0.444444 0.311111
0.044444 0.444444 0.355556
0.044444 0.444444 0.400000
0.044444 0.533333 0.000000
0.044444 0.533333 0.044444
0.044444 0.533333 0.088889
0.044444 0.533333 0.133333
0.044444 0.533333 0.177778
0.044444 0.533333 0.222222
0.044444 0.533333 0.266667
0.044444 0.533333 0.311111
0.044444 0.533333 0.355556
0.044444 0.533333 0.400000
0.044444 0.622222 0.000000
0.044444 0.622222 0.044444
0.044444 0.622222 0.088889
0.044444 0.622222 0.133333
0.044444 0.622222 0.177778
0.044444 0.622222 0.222222
0.044444 0.622222 0.266667
0.044444 0.622222 0.311111
0.044444 0.622222 0.355556
0.044444 0.622222 0.400000
0.044444 0.711111 0.000000
0.044444 0.711111 0.044444
0.044444 0.711111 0.088889
0.044444 0.711111 0.133333
0.044444 0.711111 0.177778
0.044444 0.711111 0.222222
0.044444 0.711111 0.266667
0.044444 0.711111 0.311111
0.044444 0.711111 0.355556
0.044444 0.711111 0.400000
0.044444 0.800000 0.000000
0.044444 0.800000 0.044444
0.044444 0.800000 0.088889
0.044444 0.800000 0.133333
0.044444 0.800000 0.177778
0.044444 0.800000 0.222222
0.044444 0.800000 0.266667
0.044444 0.800000 0.311111
0.044444 0.800000 0.355556
0.044444 0.800000 0.400000
0.088889 0.000000 0.000000
0.088889 0.000000 0.044444
0.088889 0.000000 0.088889
0.088889 0.000000 0.133333
0.088889 0.000000 0.177778
0.088889 0.000000 0.222222
0.088889 0.000000 0.266667
0.088889 0.000000 0.311111
0.088889 0.000000 0.355556
0.088889 0.000000 0.400000
0.088889 0.088889 0.000000
0.088889 0.088889 0.044444
0.088889 0.088889 0.088889
0.088889 0.088889 0.133333
0.088889 0.088889 0.177778
0.088889 0.088889 0.222222
0.088889 0.088889 0.266667
0.088889 0.088889 0.311111
0.088889 0.088889 0.355556
0.088889 0.088889 0.400000
0.088889 0.177778 0.000000
0.088889 0.177778 0.044444
0.088889 0.177778 0.088889
0.088889 0.177778 0.133333
0.088889 0.177778 0.177778
0.088889 0.177778 0.222222
0.088889 0.177778 0.266667
0.088889 0.177778 0.311111
0.088889 0.177778 0.355556
0.088889 0.177778 0.400000
0.088889 0.266667 0.000000
0.088889 0.266667 0.044444
0.088889 0.266667 0.088889
0.088889 0.266667 0.133333
0.088889 0.266667 0.177778
0.088889 0.266667 0.222222
0.088889 0.266667 0.266667
0.088889 0.266667 0.311111
0.088889 0.266667 0.355556
0.088889 0.266667 0.400000
0.088889 0.355556 0.000000
0.088889 0.355556 0.044444
0.088889 0.355556 0.088889
0.088889 0.355556 0.133333
0.088889 0.355556 0.177778
0.088889 0.355556 0.222222
0.088889 0.355556 0.266667
0.088889 0.355556 0.311111
0.088889 0.355556 0.355556
0.088889 0.355556 0.400000
0.088889 0.444444 0.000000
0.088889 0.444444 0.044444
0.088889 0.444444 0.088889
0.088889 0.444444 0.133333
0.088889 0.444444 0.177778
0.088889 0.444444 0.222222
0.088889 0.444444 0.266667
0.088889 0.444444 0.311111
0.088889 0.444444 0.355556
0.088889 0.444444 0.400000
0.088889 0.533333 0.000000
0.088889 0.533333 0.044444
0.088889 0.533333 0.088889
0.088889 0.533333 0.133333
0.088889 0.533333 0.177778
0.088889 0.533333 0.222222
0.088889 0.533333 0.266667
0.088889 0.533333 0.311111
0.088889 0.533333 0.355556
0.088889 0.533333 0.400000
0.088889 0.622222 0.000000
0.088889 0.622222 0.044444
0.088889 0.622222 0.088889
0.088889 0.622222 0.133333
0.088889 0.622222 0.177778
0.088889 0.622222 0.222222
0.088889 0.622222 0.266667
0.088889 0.622222 0.311111
0.088889 0.622222 0.355556
0.088889 0.622222 0.400000
0.088889 0.711111 0.000000
0.088889 0.711111 0.044444
0.088889 0.711111 0.088889
0.088889 0.711111 0.133333
0.088889 0.711111 0.177778
0.088889 0.711111 0.222222
0.088889 0.711111 0.266667
0.088889 0.711111 0.311111
0.088889 0.711111 0.355556
0.088889 0.711111 0.400000
0.088889 0.800000 0.000000
0.088889 0.800000 0.044444
0.088889 0.800000 0.088889
0.088889 0.800000 0.133333
0.088889 0.800000 0.177778
0.088889 0.800000 0.222222
0.088889 0.800000 0.266667
0.088889 0.800000 0.311111
0.088889 0.800000 0.355556
0.088889 0.800000 0.400000
0.133333 0.000000 0.000000
0.133333 0.000000 0.044444
0.133333 0.000000 0.088889
0.133333 0.000000 0.133333
0.133333 0.000000 0.177778
0.133333 0.000000 0.222222
0.133333 0.000000 0.266667
0.133333 0.000000 0.311111
0.133333 0.000000 0.355556
0.133333 0.000000 0.400000
0.133333 0.088889 0.000000
0.133333 0.088889 0.044444
0.133333 0.088889 0.088889
0.133333 0.088889 0.133333
0.133333 0.088889 0.177778
0.133333 0.088889 0.222222
0.133333 0.088889 0.266667
0.133333 0.088889 0.311111
0.133333 0.088889 0.355556
0.133333 0.088889 0.400000
0.133333 0.177778 0.000000
0.133333 0.177778 0.044444
0.133333 0.177778 0.088889
0.133333 0.177778 0.133333
0.133333 0.177778 0.177778
0.133333 0.177778 0.222222
0.133333 0.177778 0.266667
0.133333 0.177778 0.311111
0.133333 0.177778 0.355556
0.133333 0.177778 0.400000
0.133333 0.266667 0.000000
0.133333 0.266667 0.044444
0.133333 0.266667 0.088889
0.133333 0.266667 0.133333
0.133333 0.266667 0.177778
0.133333 0.266667 0.222222
0.133333 0.266667 0.266667
0.133333 0.266667 0.311111
0.133333 0.266667 0.355556
0.133333 0.266667 0.400000
0.133333 0.355556 0.000000
0.133333 0.355556 0.044444
0.133333 0.355556 0.088889
0.133333 0.355556 0.133333
0.133333 0.355556 0.177778
0.133333 0.355556 0.222222
0.133333 0.355556 0.266667
0.133333 0.355556 0.311111
0.133333 0.355556 0.355556
0.133333 0.355556 0.400000
0.133333 0.444444 0.000000
0.133333 0.444444 0.044444
0.133333 0.444444 0.088889
0.133333 0.444444 0.133333
0.133333 0.444444 0.177778
0.133333 0.444444 0.222222
0.133333 0.444444 0.266667
0.133333 0.444444 0.311111
0.133333 0.444444 0.355556
0.133333 0.444444 0.400000
0.133333 0.533333 0.000000
0.133333 0.533333 0.044444
0.133333 0.533333 0.088889
0.133333 0.533333 0.133333
0.133333 0.533333 0.177778
0.133333 0.533333 0.222222
[...]
POINT_DATA 1000
SCALARS Temperature float 1
LOOKUP_TABLE default
14.837433
14.837769
14.838135
14.838470
14.838837
14.839172
14.839508
14.839874
14.840240
14.840576
14.817108
14.817474
14.817841
14.818207
14.818573
14.818939
14.819305
14.819672
14.820038
14.820435
14.796600
14.796967
14.797363
14.797729
14.798126
14.798523
14.798889
14.799255
14.799652
14.800049
14.775879
14.776276
14.776672
14.777069
14.777466
14.777863
14.778290
14.778687
14.779083
14.779480
14.754974
14.755402
14.755829
14.756226
14.756653
14.757050
14.757477
14.757904
14.758301
14.758728
14.733917
14.734344
14.734772
14.735199
14.735657
14.736084
14.736511
14.736938
14.737366
14.737793
14.712708
14.713165
14.713593
14.714050
14.714478
14.714935
14.715363
14.715820
14.716248
14.716705
14.691376
14.691833
14.692291
14.692719
14.693176
14.693634
14.694092
14.694550
14.695007
14.695465
14.669891
14.670349
14.670807
14.671295
14.671753
14.672211
14.672699
14.673157
14.673615
14.674103
14.648315
14.648773
14.649261
14.649719
14.650208
14.650696
14.651184
14.651672
14.652130
14.652618
14.838318
14.838654
14.839020
14.839386
14.839722
14.840088
14.840424
14.840790
14.841125
14.841492
14.818024
14.818359
14.818756
14.819092
14.819458
14.819824
14.820190
14.820587
14.820953
14.821320
14.797516
14.797882
14.798248
14.798645
14.799011
14.799408
14.799805
14.800171
14.800568
14.800964
14.776794
14.777191
14.777588
14.777985
14.778381
14.778778
14.779175
14.779572
14.779968
14.780396
14.755890
14.756317
14.756714
14.757141
14.757568
14.757965
14.758392
14.758789
14.759216
14.759644
14.734863
14.735291
14.735718
14.736145
14.736572
14.737000
14.737427
14.737854
14.738281
14.738708
14.713654
14.714081
14.714539
14.714966
14.715424
14.715851
14.716309
14.716736
14.717194
14.717621
14.692291
14.692749
14.693207
14.693665
14.694122
14.694580
14.695038
14.695496
14.695953
14.696411
14.670837
14.671295
14.671753
14.672241
14.672699
14.673157
14.673645
14.674103
14.674561
14.675049
14.649261
14.649719
14.650208
14.650665
14.651154
14.651611
14.652100
14.652588
14.653076
14.653564
14.839203
14.839569
14.839905
14.840271
14.840607
14.840973
14.841309
14.841644
14.842010
14.842377
14.818909
14.819275
14.819641
14.820007
14.820374
14.820740
14.821106
14.821472
14.821838
14.822205
14.798401
14.798798
14.799164
14.799530
14.799927
14.800323
14.800690
14.801086
14.801453
14.801849
14.777710
14.778107
14.778503
14.778900
14.779297
14.779694
14.780090
14.780487
14.780884
14.781311
14.756836
14.757233
14.757660
14.758057
14.758484
14.758881
14.759308
14.759735
14.760132
14.760559
14.735779
14.736206
14.736633
14.737061
14.737488
14.737915
14.738342
14.738770
14.739197
14.739624
14.714569
14.715027
14.715454
14.715912
14.716339
14.716797
14.717224
14.717682
14.718109
14.718567
14.693237
14.693695
14.694153
14.694580
14.695038
14.695496
14.695953
14.696411
14.696869
14.697327
14.671783
14.672241
14.672699
14.673157
14.673615
14.674103
14.674561
14.675018
14.675507
14.675964
14.650208
14.650665
14.651154
14.651611
14.652100
14.652557
14.653046
14.653534
14.654022
14.654480
14.840088
14.840454
14.840790
14.841156
14.841492
14.841858
14.842194
14.842529
14.842896
14.843231
14.819824
14.820160
14.820526
14.820892
14.821259
14.821625
14.821991
14.822357
14.822723
14.823090
14.799286
14.799683
14.800079
14.800446
14.800842
14.801208
14.801605
14.801971
14.802368
14.802765
14.778625
14.779022
14.779419
14.779816
14.780212
14.780609
14.781006
14.781403
14.781799
14.782196
14.757751
14.758148
14.758575
14.758972
14.759399
14.759796
14.760223
14.760620
14.761047
14.761444
14.736694
14.737122
14.737549
14.737976
14.738403
14.738831
14.739258
14.739685
14.740143
14.740540
14.715515
14.715942
14.716400
14.716827
14.717255
14.717712
14.718140
14.718597
14.719025
14.719482
14.694183
14.694611
14.695068
14.695526
14.695984
14.696442
14.696899
14.697357
14.697815
14.698273
14.672699
14.673157
14.673645
14.674103
14.674561
14.675018
14.675507
14.675964
14.676453
14.676910
14.651123
14.651611
14.652069
14.652557
14.653046
14.653503
14.653992
14.654480
14.654938
14.655426
14.841003
14.841339
14.841705
14.842041
14.842377
14.842743
14.843079
14.843445
14.843781
14.844147
14.820709
14.821075
14.821442
14.821808
14.822174
14.822540
14.822906
14.823273
14.823639
14.824005
14.800201
14.800598
14.800964
14.801361
14.801727
14.802124
14.802490
14.802887
14.803253
14.803650
14.779541
14.779938
14.780304
14.780701
14.781128
14.781525
14.781921
14.782318
14.782715
14.783112
14.758667
14.759064
14.759491
14.759888
14.760315
14.760712
14.761139
14.761536
14.761963
14.762390
14.737640
14.738037
14.738495
14.738892
14.739319
14.739777
14.740173
14.740601
14.741058
14.741486
14.716431
14.716858
14.717316
14.717743
14.718201
14.718628
14.719086
14.719513
14.719971
14.720398
14.695099
14.695557
14.696014
14.696472
14.696930
14.697357
14.697815
14.698273
14.698730
14.699188
14.673645
14.674103
14.674561
14.675049
14.675507
14.675964
14.676422
14.676910
14.677368
14.677856
14.652069
14.652557
14.653015
14.653503
14.653961
14.654449
14.654938
14.655396
14.655884
14.656372
14.841888
14.842224
14.842560
14.842926
14.843262
14.843628
14.843964
14.844330
14.844666
14.845032
14.821594
14.821960
14.822327
14.822693
14.823059
14.823425
14.823792
14.824158
14.824524
14.824890
14.801117
14.801483
14.801880
14.802246
14.802643
14.803009
14.803406
14.803772
14.804169
14.804565
14.780426
14.780853
14.781219
14.781647
14.782013
14.782440
14.782806
14.783234
14.783630
14.784027
14.759583
14.759979
14.760406
14.760803
14.761230
14.761627
14.762054
14.762451
14.762878
14.763306
14.738556
14.738983
14.739410
14.739838
14.740265
14.740692
14.741119
14.741547
14.741974
14.742401
14.717377
14.717804
14.718231
14.718689
14.719116
14.719574
14.720001
14.720459
14.720886
14.721344
14.696045
14.696503
14.696930
14.697388
14.697845
14.698303
14.698761
14.699219
14.699677
14.700134
14.674591
14.675049
14.675507
14.675964
14.676453
14.676910
14.677368
14.677856
14.678314
14.678772
14.653015
14.653503
14.653961
14.654449
14.654907
14.655396
14.655884
14.656342
14.656830
14.657318
14.842773
14.843109
14.843475
14.843811
14.844177
14.844513
14.844849
14.845215
14.845551
14.845917
14.822510
14.822876
14.823242
14.823578
14.823944
14.824310
14.824677
14.825043
14.825409
14.825775
14.802032
14.802399
14.802765
14.803162
14.803558
14.803925
14.804321
14.804688
14.805084
14.805450
14.781342
14.781738
14.782135
14.782532
14.782928
14.783325
14.783722
14.784119
14.784515
14.784912
14.760498
14.760895
14.761322
14.761719
14.762146
14.762573
14.762970
14.763367
14.763794
14.764221
14.739471
14.739899
14.740326
14.740753
14.741180
14.741608
14.742035
14.742462
14.742889
14.743317
14.718292
14.718750
14.719177
14.719604
14.720032
14.720490
14.720917
14.721375
14.721802
14.722260
14.696991
14.697418
14.697876
14.698334
14.698792
14.699219
14.699677
14.700134
14.700592
14.701050
14.675537
14.675995
14.676453
14.676910
14.677368
14.677856
14.678314
14.678772
14.679260
14.679718
14.653961
14.654419
14.654907
14.655365
14.655853
14.656342
14.656799
14.657288
14.657776
14.658264
14.843658
14.844025
14.844360
14.844696
14.845062
14.845398
14.845734
14.846100
14.846436
14.846802
14.823395
14.823761
14.824127
14.824493
14.824860
14.825226
14.825562
14.825958
14.826324
14.826691
14.802917
14.803314
14.803680
14.804077
14.804443
14.804840
14.805206
14.805603
14.805969
14.806366
14.782257
14.782654
14.783051
14.783447
14.783844
14.784241
14.784637
14.785034
14.785431
14.785828
14.761414
14.761810
14.762238
14.762634
14.763062
14.763458
14.763885
14.764313
14.764709
14.765106
14.740387
14.740814
14.741241
14.741669
14.742096
14.742523
14.742950
14.743378
14.743805
14.744232
14.719238
14.719666
14.720093
14.720551
14.720978
14.721405
14.721863
14.722290
14.722748
14.723175
14.697906
14.698364
14.698822
14.699249
14.699707
14.700165
14.700623
14.701080
14.701538
14.701996
14.676453
14.676941
14.677399
14.677856
14.678314
14.678802
14.679260
14.679718
14.680176
14.680664
14.654907
14.655365
14.655853
14.656311
14.656799
14.657288
14.657745
14.658234
14.658722
14.659180
14.844543
14.844910
14.845245
14.845581
14.845947
14.846283
14.846619
14.846985
14.847321
14.847687
14.824310
14.824677
14.825012
14.825378
14.825745
14.826111
14.826477
14.826843
14.827209
14.827576
14.803833
14.804230
14.804596
14.804962
14.805359
14.805725
14.806122
14.806488
14.806885
14.807251
14.783173
14.783569
14.783966
14.784363
14.784760
14.785156
14.785553
14.785950
14.786346
14.786743
14.762329
14.762756
14.763153
14.763580
14.763977
14.764404
14.764801
14.765228
14.765625
14.766022
14.741333
14.741760
14.742157
14.742584
14.743011
14.743469
14.743866
14.744293
14.744720
14.745148
14.720154
14.720581
14.721039
14.721466
14.721924
14.722351
14.722778
14.723236
14.723663
14.724121
14.698853
14.699280
14.699738
14.700195
14.700623
14.701111
14.701569
14.701996
14.702454
14.702911
14.677399
14.677856
14.678345
14.678772
14.679260
14.679718
14.680176
14.680664
14.681122
14.681580
14.655853
14.656311
14.656799
14.657257
14.657745
14.658203
14.658691
14.659149
14.659637
14.660126
14.845428
14.845795
14.846130
14.846466
14.846832
14.847168
14.847534
14.847870
14.848206
14.848572
14.825195
14.825562
14.825928
14.826294
14.826660
14.826996
14.827362
14.827728
14.828094
14.828461
14.804749
14.805115
14.805511
14.805878
14.806274
14.806641
14.807007
14.807404
14.807770
14.808167
14.784088
14.784485
14.784882
14.785278
14.785675
14.786072
14.786469
14.786865
14.787262
14.787659
14.763245
14.763672
14.764069
14.764496
14.764893
14.765320
14.765717
14.766113
14.766541
14.766968
14.742249
14.742676
14.743103
14.743530
14.743958
14.744385
14.744781
14.745209
14.745636
14.746094
14.721100
14.721527
14.721954
14.722412
14.722839
14.723267
14.723724
14.724152
14.724609
14.725037
14.699768
14.700226
14.700684
14.701141
14.701569
14.702026
14.702484
14.702942
14.703400
14.703857
14.678345
14.678802
14.679291
14.679718
14.680206
14.680664
14.681122
14.681580
14.682037
14.682526
14.656769
14.657257
14.657715
14.658203
14.658691
14.659149
14.659637
14.660095
14.660583
14.661072

SCALARS Alpha float 1
LOOKUP_TABLE default
0.051856
0.051861
0.051866
0.051871
0.051876
0.051880
0.051885
0.051890
0.051895
0.051899
0.051864
0.051868
0.051873
0.051878
0.051883
0.051887
0.051892
0.051897
0.051901
0.051906
0.051871
0.051875
0.051880
0.051885
0.051889
0.051894
0.051899
0.051904
0.051908
0.051913
0.051878
0.051882
0.051887
0.051892
0.051896
0.051901
0.051906
0.051910
0.051915
0.051920
0.051885
0.051889
0.051894
0.051898
0.051903
0.051908
0.051912
0.051917
0.051922
0.051926
0.051891
0.051896
0.051901
0.051905
0.051910
0.051914
0.051919
0.051924
0.051928
0.051933
0.051898
0.051903
0.051907
0.051912
0.051916
0.051921
0.051925
0.051930
0.051935
0.051939
0.051905
0.051909
0.051914
0.051918
0.051923
0.051927
0.051932
0.051936
0.051941
0.051945
0.051911
0.051916
0.051920
0.051925
0.051929
0.051934
0.051938
0.051943
0.051947
0.051952
0.051918
0.051923
0.051927
0.051931
0.051936
0.051940
0.051945
0.051949
0.051954
0.051958
0.051859
0.051863
0.051868
0.051873
0.051878
0.051883
0.051887
0.051892
0.051897
0.051902
0.051866
0.051871
0.051875
0.051880
0.051885
0.051890
0.051894
0.051899
0.051904
0.051908
0.051873
0.051878
0.051882
0.051887
0.051892
0.051896
0.051901
0.051906
0.051911
0.051915
0.051880
0.051885
0.051889
0.051894
0.051899
0.051903
0.051908
0.051913
0.051917
0.051922
0.051887
0.051891
0.051896
0.051901
0.051905
0.051910
0.051915
0.051919
0.051924
0.051928
0.051894
0.051898
0.051903
0.051907
0.051912
0.051917
0.051921
0.051926
0.051930
0.051935
0.051900
0.051905
0.051910
0.051914
0.051919
0.051923
0.051928
0.051932
0.051937
0.051941
0.051907
0.051912
0.051916
0.051921
0.051925
0.051930
0.051934
0.051939
0.051943
0.051948
0.051914
0.051918
0.051923
0.051927
0.051932
0.051936
0.051941
0.051945
0.051950
0.051954
0.051920
0.051925
0.051929
0.051934
0.051938
0.051943
0.051947
0.051952
0.051956
0.051960
0.051861
0.051866
0.051871
0.051875
0.051880
0.051885
0.051890
0.051894
0.051899
0.051904
0.051868
0.051873
0.051878
0.051883
0.051887
0.051892
0.051897
0.051901
0.051906
0.051911
0.051875
0.051880
0.051885
0.051889
0.051894
0.051899
0.051904
0.051908
0.051913
0.051917
0.051882
0.051887
0.051892
0.051896
0.051901
0.051906
0.051910
0.051915
0.051920
0.051924
0.051889
0.051894
0.051899
0.051903
0.051908
0.051913
0.051917
0.051922
0.051926
0.051931
0.051896
0.051901
0.051905
0.051910
0.051915
0.051919
0.051924
0.051928
0.051933
0.051937
0.051903
0.051907
0.051912
0.051917
0.051921
0.051926
0.051930
0.051935
0.051939
0.051944
0.051910
0.051914
0.051919
0.051923
0.051928
0.051932
0.051937
0.051941
0.051946
0.051950
0.051916
0.051921
0.051925
0.051930
0.051934
0.051939
0.051943
0.051948
0.051952
0.051956
0.051923
0.051927
0.051932
0.051936
0.051941
0.051945
0.051950
0.051954
0.051958
0.051963
0.051863
0.051868
0.051873
0.051878
0.051883
0.051887
0.051892
0.051897
0.051902
0.051906
0.051871
0.051875
0.051880
0.051885
0.051890
0.051894
0.051899
0.051904
0.051908
0.051913
0.051878
0.051882
0.051887
0.051892
0.051897
0.051901
0.051906
0.051910
0.051915
0.051920
0.051885
0.051889
0.051894
0.051899
0.051903
0.051908
0.051913
0.051917
0.051922
0.051927
0.051892
0.051896
0.051901
0.051906
0.051910
0.051915
0.051919
0.051924
0.051929
0.051933
0.051898
0.051903
0.051908
0.051912
0.051917
0.051921
0.051926
0.051931
0.051935
0.051940
0.051905
0.051910
0.051914
0.051919
0.051924
0.051928
0.051933
0.051937
0.051942
0.051946
0.051912
0.051917
0.051921
0.051926
0.051930
0.051935
0.051939
0.051944
0.051948
0.051952
0.051919
0.051923
0.051928
0.051932
0.051937
0.051941
0.051946
0.051950
0.051954
0.051959
0.051925
0.051930
0.051934
0.051939
0.051943
0.051948
0.051952
0.051956
0.051961
0.051965
0.051866
0.051871
0.051875
0.051880
0.051885
0.051890
0.051894
0.051899
0.051904
0.051908
0.051873
0.051878
0.051882
0.051887
0.051892
0.051897
0.051901
0.051906
0.051911
0.051915
0.051880
0.051885
0.051890
0.051894
0.051899
0.051904
0.051908
0.051913
0.051918
0.051922
0.051887
0.051892
0.051896
0.051901
0.051906
0.051910
0.051915
0.051920
0.051924
0.051929
0.051894
0.051899
0.051903
0.051908
0.051913
0.051917
0.051922
0.051926
0.051931
0.051935
0.051901
0.051905
0.051910
0.051915
0.051919
0.051924
0.051928
0.051933
0.051938
0.051942
0.051908
0.051912
0.051917
0.051921
0.051926
0.051930
0.051935
0.051940
0.051944
0.051949
0.051914
0.051919
0.051923
0.051928
0.051932
0.051937
0.051941
0.051946
0.051950
0.051955
0.051921
0.051926
0.051930
0.051935
0.051939
0.051943
0.051948
0.051952
0.051957
0.051961
0.051928
0.051932
0.051937
0.051941
0.051946
0.051950
0.051954
0.051959
0.051963
0.051968
0.051868
0.051873
0.051878
0.051883
0.051887
0.051892
0.051897
0.051901
0.051906
0.051911
0.051875
0.051880
0.051885
0.051890
0.051894
0.051899
0.051904
0.051908
0.051913
0.051918
0.051882
0.051887
0.051892
0.051897
0.051901
0.051906
0.051911
0.051915
0.051920
0.051925
0.051890
0.051894
0.051899
0.051904
0.051908
0.051913
0.051917
0.051922
0.051927
0.051931
0.051896
0.051901
0.051906
0.051910
0.051915
0.051920
0.051924
0.051929
0.051933
0.051938
0.051903
0.051908
0.051912
0.051917
0.051922
0.051926
0.051931
0.051935
0.051940
0.051944
0.051910
0.051915
0.051919
0.051924
0.051928
0.051933
0.051937
0.051942
0.051946
0.051951
0.051917
0.051921
0.051926
0.051930
0.051935
0.051939
0.051944
0.051948
0.051953
0.051957
0.051924
0.051928
0.051933
0.051937
0.051941
0.051946
0.051950
0.051955
0.051959
0.051964
0.051930
0.051935
0.051939
0.051944
0.051948
0.051952
0.051957
0.051961
0.051965
0.051970
0.051871
0.051875
0.051880
0.051885
0.051890
0.051894
0.051899
0.051904
0.051909
0.051913
0.051878
0.051883
0.051887
0.051892
0.051897
0.051901
0.051906
0.051911
0.051915
0.051920
0.051885
0.051890
0.051894
0.051899
0.051904
0.051908
0.051913
0.051918
0.051922
0.051927
0.051892
0.051897
0.051901
0.051906
0.051911
0.051915
0.051920
0.051924
0.051929
0.051934
0.051899
0.051903
0.051908
0.051913
0.051917
0.051922
0.051926
0.051931
0.051936
0.051940
0.051906
0.051910
0.051915
0.051919
0.051924
0.051929
0.051933
0.051938
0.051942
0.051947
0.051913
0.051917
0.051922
0.051926
0.051931
0.051935
0.051940
0.051944
0.051949
0.051953
0.051919
0.051924
0.051928
0.051933
0.051937
0.051942
0.051946
0.051951
0.051955
0.051960
0.051926
0.051930
0.051935
0.051939
0.051944
0.051948
0.051953
0.051957
0.051962
0.051966
0.051933
0.051937
0.051942
0.051946
0.051950
0.051955
0.051959
0.051964
0.051968
0.051972
0.051873
0.051878
0.051882
0.051887
0.051892
0.051897
0.051902
0.051906
0.051911
0.051916
0.051880
0.051885
0.051890
0.051894
0.051899
0.051904
0.051908
0.051913
0.051918
0.051922
0.051887
0.051892
0.051897
0.051901
0.051906
0.051911
0.051915
0.051920
0.051925
0.051929
0.051894
0.051899
0.051904
0.051908
0.051913
0.051918
0.051922
0.051927
0.051931
0.051936
0.051901
0.051906
0.051910
0.051915
0.051920
0.051924
0.051929
0.051933
0.051938
0.051943
0.051908
0.051913
0.051917
0.051922
0.051927
0.051931
0.051936
0.051940
0.051945
0.051949
0.051915
0.051920
0.051924
0.051929
0.051933
0.051938
0.051942
0.051947
0.051951
0.051956
0.051922
0.051926
0.051931
0.051935
0.051940
0.051944
0.051949
0.051953
0.051958
0.051962
0.051928
0.051933
0.051937
0.051942
0.051946
0.051951
0.051955
0.051960
0.051964
0.051969
0.051935
0.051940
0.051944
0.051948
0.051953
0.051957
0.051962
0.051966
0.051970
0.051975
0.051875
0.051880
0.051885
0.051890
0.051894
0.051899
0.051904
0.051909
0.051913
0.051918
0.051883
0.051887
0.051892
0.051897
0.051901
0.051906
0.051911
0.051916
0.051920
0.051925
0.051890
0.051894
0.051899
0.051904
0.051909
0.051913
0.051918
0.051922
0.051927
0.051932
0.051897
0.051901
0.051906
0.051911
0.051915
0.051920
0.051925
0.051929
0.051934
0.051938
0.051904
0.051908
0.051913
0.051918
0.051922
0.051927
0.051931
0.051936
0.051940
0.051945
0.051911
0.051915
0.051920
0.051924
0.051929
0.051933
0.051938
0.051942
0.051947
0.051952
0.051917
0.051922
0.051927
0.051931
0.051936
0.051940
0.051945
0.051949
0.051954
0.051958
0.051924
0.051929
0.051933
0.051938
0.051942
0.051947
0.051951
0.051956
0.051960
0.051965
0.051931
0.051935
0.051940
0.051944
0.051949
0.051953
0.051958
0.051962
0.051967
0.051971
0.051938
0.051942
0.051946
0.051951
0.051955
0.051960
0.051964
0.051968
0.051973
0.051977
0.051878
0.051883
0.051887
0.051892
0.051897
0.051902
0.051906
0.051911
0.051916
0.051920
0.051885
0.051890
0.051895
0.051899
0.051904
0.051909
0.051913
0.051918
0.051923
0.051927
0.051892
0.051897
0.051902
0.051906
0.051911
0.051916
0.051920
0.051925
0.051929
0.051934
0.051899
0.051904
0.051909
0.051913
0.051918
0.051922
0.051927
0.051932
0.051936
0.051941
0.051906
0.051911
0.051915
0.051920
0.051925
0.051929
0.051934
0.051938
0.051943
0.051947
0.051913
0.051918
0.051922
0.051927
0.051931
0.051936
0.051940
0.051945
0.051950
0.051954
0.051920
0.051924
0.051929
0.051934
0.051938
0.051942
0.051947
0.051952
0.051956
0.051960
0.051927
0.051931
0.051936
0.051940
0.051945
0.051949
0.051954
0.051958
0.051962
0.051967
0.051933
0.051938
0.051942
0.051947
0.051951
0.051956
0.051960
0.051964
0.051969
0.051973
0.051940
0.051944
0.051949
0.051953
0.051958
0.051962
0.051967
0.051971
0.051975
0.051980
