# vtk DataFile Version 3.0
PINN prediction t=11917.2412109375
ASCII
DATASET UNSTRUCTURED_GRID
POINTS 1000 float
0.000000 0.000000 0.000000
0.000000 0.000000 0.044444
0.000000 0.000000 0.088889
0.000000 0.000000 0.133333
0.000000 0.000000 0.177778
0.000000 0.000000 0.222222
0.000000 0.000000 0.266667
0.000000 0.000000 0.311111
0.000000 0.000000 0.355556
0.000000 0.000000 0.400000
0.000000 0.088889 0.000000
0.000000 0.088889 0.044444
0.000000 0.088889 0.088889
0.000000 0.088889 0.133333
0.000000 0.088889 0.177778
0.000000 0.088889 0.222222
0.000000 0.088889 0.266667
0.000000 0.088889 0.311111
0.000000 0.088889 0.355556
0.000000 0.088889 0.400000
0.000000 0.177778 0.000000
0.000000 0.177778 0.044444
0.000000 0.177778 0.088889
0.000000 0.177778 0.133333
0.000000 0.177778 0.177778
0.000000 0.177778 0.222222
0.000000 0.177778 0.266667
0.000000 0.177778 0.311111
0.000000 0.177778 0.355556
0.000000 0.177778 0.400000
0.000000 0.266667 0.000000
0.000000 0.266667 0.044444
0.000000 0.266667 0.088889
0.000000 0.266667 0.133333
0.000000 0.266667 0.177778
0.000000 0.266667 0.222222
0.000000 0.266667 0.266667
0.000000 0.266667 0.311111
0.000000 0.266667 0.355556
0.000000 0.266667 0.400000
0.000000 0.355556 0.000000
0.000000 0.355556 0.044444
0.000000 0.355556 0.088889
0.000000 0.355556 0.133333
0.000000 0.355556 0.177778
0.000000 0.355556 0.222222
0.000000 0.355556 0.266667
0.000000 0.355556 0.311111
0.000000 0.355556 0.355556
0.000000 0.355556 0.400000
0.000000 0.444444 0.000000
0.000000 0.444444 0.044444
0.000000 0.444444 0.088889
0.000000 0.444444 0.133333
0.000000 0.444444 0.177778
0.000000 0.444444 0.222222
0.000000 0.444444 0.266667
0.000000 0.444444 0.311111
0.000000 0.444444 0.355556
0.000000 0.444444 0.400000
0.000000 0.533333 0.000000
0.000000 0.533333 0.044444
0.000000 0.533333 0.088889
0.000000 0.533333 0.133333
0.000000 0.533333 0.177778
0.000000 0.533333 0.222222
0.000000 0.533333 0.266667
0.000000 0.533333 0.311111
0.000000 0.533333 0.355556
0.000000 0.533333 0.400000
0.000000 0.622222 0.000000
0.000000 0.622222 0.044444
0.000000 0.622222 0.088889
0.000000 0.622222 0.133333
0.000000 0.622222 0.177778
0.000000 0.622222 0.222222
0.000000 0.622222 0.266667
0.000000 0.622222 0.311111
0.000000 0.622222 0.355556
0.000000 0.622222 0.400000
0.000000 0.711111 0.000000
0.000000 0.711111 0.044444
0.000000 0.711111 0.088889
0.000000 0.711111 0.133333
0.000000 0.711111 0.177778
0.000000 0.711111 0.222222
0.000000 0.711111 0.266667
0.000000 0.711111 0.311111
0.000000 0.711111 0.355556
0.000000 0.711111 0.400000
0.000000 0.800000 0.000000
0.000000 0.800000 0.044444
0.000000 0.800000 0.088889
0.000000 0.800000 0.133333
0.000000 0.800000 0.177778
0.000000 0.800000 0.222222
0.000000 0.800000 0.266667
0.000000 0.800000 0.311111
0.000000 0.800000 0.355556
0.000000 0.800000 0.400000
0.044444 0.000000 0.000000
0.044444 0.000000 0.044444
0.044444 0.000000 0.088889
0.044444 0.000000 0.133333
0.044444 0.000000 0.177778
0.044444 0.000000 0.222222
0.044444 0.000000 0.266667
0.044444 0.000000 0.311111
0.044444 0.000000 0.355556
0.044444 0.000000 0.400000
0.044444 0.088889 0.000000
0.044444 0.088889 0.044444
0.044444 0.088889 0.088889
0.044444 0.088889 0.133333
0.044444 0.088889 0.177778
0.044444 0.088889 0.222222
0.044444 0.088889 0.266667
0.044444 0.088889 0.311111
0.044444 0.088889 0.355556
0.044444 0.088889 0.400000
0.044444 0.177778 0.000000
0.044444 0.177778 0.044444
0.044444 0.177778 0.088889
0.044444 0.177778 0.133333
0.044444 0.177778 0.177778
0.044444 0.177778 0.222222
0.044444 0.177778 0.266667
0.044444 0.177778 0.311111
0.044444 0.177778 0.355556
0.044444 0.177778 0.400000
0.044444 0.266667 0.000000
0.044444 0.266667 0.044444
0.044444 0.266667 0.088889
0.044444 0.266667 0.133333
0.044444 0.266667 0.177778
0.044444 0.266667 0.222222
0.044444 0.266667 0.266667
0.044444 0.266667 0.311111
0.044444 0.266667 0.355556
0.044444 0.266667 0.400000
0.044444 0.355556 0.000000
0.044444 0.355556 0.044444
0.044444 0.355556 0.088889
0.044444 0.355556 0.133333
0.044444 0.355556 0.177778
0.044444 0.355556 0.222222
0.044444 0.355556 0.266667
0.044444 0.355556 0.311111
0.044444 0.355556 0.355556
0.044444 0.355556 0.400000
0.044444 0.444444 0.000000
0.044444 0.444444 0.044444
0.044444 0.444444 0.088889
0.044444 0.444444 0.133333
0.044444 0.444444 0.177778
0.044444 0.444444 0.222222
0.044444 0.444444 0.266667
0.044444 0.444444 0.311111
0.044444 0.444444 0.355556
0.044444 0.444444 0.400000
0.044444 0.533333 0.000000
0.044444 0.533333 0.044444
0.044444 0.533333 0.088889
0.044444 0.533333 0.133333
0.044444 0.533333 0.177778
0.044444 0.533333 0.222222
0.044444 0.533333 0.266667
0.044444 0.533333 0.311111
0.044444 0.533333 0.355556
0.044444 0.533333 0.400000
0.044444 0.622222 0.000000
0.044444 0.622222 0.044444
0.044444 0.622222 0.088889
0.044444 0.622222 0.133333
0.044444 0.622222 0.177778
0.044444 0.622222 0.222222
0.044444 0.622222 0.266667
0.044444 0.622222 0.311111
0.044444 0.622222 0.355556
0.044444 0.622222 0.400000
0.044444 0.711111 0.000000
0.044444 0.711111 0.044444
0.044444 0.711111 0.088889
0.044444 0.711111 0.133333
0.044444 0.711111 0.177778
0.044444 0.711111 0.222222
0.044444 0.711111 0.266667
0.044444 0.711111 0.311111
0.044444 0.711111 0.355556
0.044444 0.711111 0.400000
0.044444 0.800000 0.000000
0.044444 0.800000 0.044444
0.044444 0.800000 0.088889
0.044444 0.800000 0.133333
0.044444 0.800000 0.177778
0.044444 0.800000 0.222222
0.044444 0.800000 0.266667
0.044444 0.800000 0.311111
0.044444 0.800000 0.355556
0.044444 0.800000 0.400000
0.088889 0.000000 0.000000
0.088889 0.000000 0.044444
0.088889 0.000000 0.088889
0.088889 0.000000 0.133333
0.088889 0.000000 0.177778
0.088889 0.000000 0.222222
0.088889 0.000000 0.266667
0.088889 0.000000 0.311111
0.088889 0.000000 0.355556
0.088889 0.000000 0.400000
0.088889 0.088889 0.000000
0.088889 0.088889 0.044444
0.088889 0.088889 0.088889
0.088889 0.088889 0.133333
0.088889 0.088889 0.177778
0.088889 0.088889 0.222222
0.088889 0.088889 0.266667
0.088889 0.088889 0.311111
0.088889 0.088889 0.355556
0.088889 0.088889 0.400000
0.088889 0.177778 0.000000
0.088889 0.177778 0.044444
0.088889 0.177778 0.088889
0.088889 0.177778 0.133333
0.088889 0.177778 0.177778
0.088889 0.177778 0.222222
0.088889 0.177778 0.266667
0.088889 0.177778 0.311111
0.088889 0.177778 0.355556
0.088889 0.177778 0.400000
0.088889 0.266667 0.000000
0.088889 0.266667 0.044444
0.088889 0.266667 0.088889
0.088889 0.266667 0.133333
0.088889 0.266667 0.177778
0.088889 0.266667 0.222222
0.088889 0.266667 0.266667
0.088889 0.266667 0.311111
0.088889 0.266667 0.355556
0.088889 0.266667 0.400000
0.088889 0.355556 0.000000
0.088889 0.355556 0.044444
0.088889 0.355556 0.088889
0.088889 0.355556 0.133333
0.088889 0.355556 0.177778
0.088889 0.355556 0.222222
0.088889 0.355556 0.266667
0.088889 0.355556 0.311111
0.088889 0.355556 0.355556
0.088889 0.355556 0.400000
0.088889 0.444444 0.000000
0.088889 0.444444 0.044444
0.088889 0.444444 0.088889
0.088889 0.444444 0.133333
0.088889 0.444444 0.177778
0.088889 0.444444 0.222222
0.088889 0.444444 0.266667
0.088889 0.444444 0.311111
0.088889 0.444444 0.355556
0.088889 0.444444 0.400000
0.088889 0.533333 0.000000
0.088889 0.533333 0.044444
0.088889 0.533333 0.088889
0.088889 0.533333 0.133333
0.088889 0.533333 0.177778
0.088889 0.533333 0.222222
0.088889 0.533333 0.266667
0.088889 0.533333 0.311111
0.088889 0.533333 0.355556
0.088889 0.533333 0.400000
0.088889 0.622222 0.000000
0.088889 0.622222 0.044444
0.088889 0.622222 0.088889
0.088889 0.622222 0.133333
0.088889 0.622222 0.177778
0.088889 0.622222 0.222222
0.088889 0.622222 0.266667
0.088889 0.622222 0.311111
0.088889 0.622222 0.355556
0.088889 0.622222 0.400000
0.088889 0.711111 0.000000
0.088889 0.711111 0.044444
0.088889 0.711111 0.088889
0.088889 0.711111 0.133333
0.088889 0.711111 0.177778
0.088889 0.711111 0.222222
0.088889 0.711111 0.266667
0.088889 0.711111 0.311111
0.088889 0.711111 0.355556
0.088889 0.711111 0.400000
0.088889 0.800000 0.000000
0.088889 0.800000 0.044444
0.088889 0.800000 0.088889
0.088889 0.800000 0.133333
0.088889 0.800000 0.177778
0.088889 0.800000 0.222222
0.088889 0.800000 0.266667
0.088889 0.800000 0.311111
0.088889 0.800000 0.355556
0.088889 0.800000 0.400000
0.133333 0.000000 0.000000
0.133333 0.000000 0.044444
0.133333 0.000000 0.088889
0.133333 0.000000 0.133333
0.133333 0.000000 0.177778
0.133333 0.000000 0.222222
0.133333 0.000000 0.266667
0.133333 0.000000 0.311111
0.133333 0.000000 0.355556
0.133333 0.000000 0.400000
0.133333 0.088889 0.000000
0.133333 0.088889 0.044444
0.133333 0.088889 0.088889
0.133333 0.088889 0.133333
0.133333 0.088889 0.177778
0.133333 0.088889 0.222222
0.133333 0.088889 0.266667
0.133333 0.088889 0.311111
0.133333 0.088889 0.355556
0.133333 0.088889 0.400000
0.133333 0.177778 0.000000
0.133333 0.177778 0.044444
0.133333 0.177778 0.088889
0.133333 0.177778 0.133333
0.133333 0.177778 0.177778
0.133333 0.177778 0.222222
0.133333 0.177778 0.266667
0.133333 0.177778 0.311111
0.133333 0.177778 0.355556
0.133333 0.177778 0.400000
0.133333 0.266667 0.000000
0.133333 0.266667 0.044444
0.133333 0.266667 0.088889
0.133333 0.266667 0.133333
0.133333 0.266667 0.177778
0.133333 0.266667 0.222222
0.133333 0.266667 0.266667
0.133333 0.266667 0.311111
0.133333 0.266667 0.355556
0.133333 0.266667 0.400000
0.133333 0.355556 0.000000
0.133333 0.355556 0.044444
0.133333 0.355556 0.088889
0.133333 0.355556 0.133333
0.133333 0.355556 0.177778
0.133333 0.355556 0.222222
0.133333 0.355556 0.266667
0.133333 0.355556 0.311111
0.133333 0.355556 0.355556
0.133333 0.355556 0.400000
0.133333 0.444444 0.000000
0.133333 0.444444 0.044444
0.133333 0.444444 0.088889
0.133333 0.444444 0.133333
0.133333 0.444444 0.177778
0.133333 0.444444 0.222222
0.133333 0.444444 0.266667
0.133333 0.444444 0.311111
0.133333 0.444444 0.355556
0.133333 0.444444 0.400000
0.133333 0.533333 0.000000
0.133333 0.533333 0.044444
0.133333 0.533333 0.088889
0.133333 0.533333 0.133333
0.133333 0.533333 0.177778
0.133333 0.533333 0.222222
[...]
POINT_DATA 1000
SCALARS Temperature float 1
LOOKUP_TABLE default
15.154114
15.154297
15.154449
15.154633
15.154785
15.154968
15.155151
15.155304
15.155457
15.155640
15.150665
15.150848
15.151031
15.151215
15.151398
15.151550
15.151733
15.151917
15.152100
15.152283
15.147095
15.147278
15.147461
15.147644
15.147827
15.148041
15.148224
15.148407
15.148590
15.148773
15.143402
15.143585
15.143799
15.143982
15.144165
15.144379
15.144562
15.144745
15.144958
15.145142
15.139557
15.139771
15.139984
15.140167
15.140381
15.140564
15.140778
15.140961
15.141174
15.141388
15.135590
15.135803
15.136017
15.136230
15.136444
15.136658
15.136841
15.137054
15.137268
15.137482
15.131470
15.131714
15.131927
15.132141
15.132355
15.132568
15.132782
15.132996
15.133209
15.133423
15.127228
15.127441
15.127686
15.127899
15.128143
15.128357
15.128571
15.128815
15.129028
15.129242
15.122803
15.123047
15.123260
15.123505
15.123749
15.123993
15.124207
15.124451
15.124695
15.124908
15.118225
15.118500
15.118744
15.118958
15.119202
15.119446
15.119690
15.119934
15.120178
15.120422
15.154236
15.154419
15.154572
15.154755
15.154938
15.155090
15.155273
15.155426
15.155609
15.155792
15.150787
15.150970
15.151154
15.151337
15.151520
15.151703
15.151886
15.152039
15.152222
15.152405
15.147247
15.147430
15.147614
15.147797
15.147980
15.148163
15.148376
15.148529
15.148712
15.148895
15.143555
15.143738
15.143951
15.144135
15.144318
15.144531
15.144714
15.144928
15.145111
15.145294
15.139740
15.139923
15.140137
15.140320
15.140533
15.140717
15.140930
15.141144
15.141327
15.141541
15.135773
15.135956
15.136169
15.136383
15.136597
15.136810
15.137024
15.137238
15.137421
15.137634
15.131653
15.131866
15.132080
15.132294
15.132538
15.132751
15.132965
15.133179
15.133392
15.133606
15.127411
15.127625
15.127838
15.128082
15.128296
15.128510
15.128754
15.128967
15.129181
15.129425
15.122986
15.123230
15.123474
15.123688
15.123932
15.124176
15.124390
15.124634
15.124878
15.125092
15.118439
15.118683
15.118927
15.119171
15.119415
15.119659
15.119873
15.120117
15.120361
15.120605
15.154358
15.154541
15.154724
15.154907
15.155060
15.155243
15.155396
15.155579
15.155731
15.155914
15.150940
15.151123
15.151306
15.151489
15.151672
15.151855
15.152008
15.152191
15.152374
15.152527
15.147400
15.147583
15.147766
15.147949
15.148132
15.148315
15.148499
15.148682
15.148865
15.149048
15.143707
15.143890
15.144073
15.144287
15.144470
15.144653
15.144867
15.145050
15.145264
15.145447
15.139893
15.140076
15.140289
15.140503
15.140686
15.140900
15.141083
15.141296
15.141510
15.141693
15.135925
15.136139
15.136353
15.136566
15.136780
15.136963
15.137177
15.137390
15.137573
15.137787
15.131836
15.132050
15.132263
15.132477
15.132690
15.132935
15.133118
15.133331
15.133545
15.133759
15.127563
15.127808
15.128021
15.128265
15.128479
15.128693
15.128937
15.129150
15.129364
15.129608
15.123169
15.123413
15.123657
15.123871
15.124115
15.124359
15.124573
15.124817
15.125031
15.125275
15.118622
15.118866
15.119110
15.119354
15.119598
15.119843
15.120087
15.120331
15.120544
15.120789
15.154510
15.154694
15.154846
15.155029
15.155212
15.155365
15.155548
15.155701
15.155884
15.156036
15.151093
15.151276
15.151459
15.151611
15.151794
15.151978
15.152161
15.152344
15.152496
15.152679
15.147522
15.147705
15.147919
15.148102
15.148285
15.148468
15.148651
15.148834
15.149017
15.149200
15.143860
15.144043
15.144257
15.144440
15.144623
15.144836
15.145020
15.145203
15.145386
15.145569
15.140045
15.140259
15.140442
15.140656
15.140839
15.141052
15.141235
15.141449
15.141632
15.141846
15.136078
15.136292
15.136505
15.136719
15.136932
15.137115
15.137329
15.137543
15.137756
15.137970
15.131989
15.132202
15.132446
15.132660
15.132874
15.133087
15.133301
15.133514
15.133728
15.133942
15.127747
15.127960
15.128204
15.128418
15.128632
15.128876
15.129089
15.129333
15.129547
15.129761
15.123352
15.123596
15.123840
15.124054
15.124298
15.124542
15.124756
15.125000
15.125214
15.125458
15.118805
15.119049
15.119293
15.119537
15.119781
15.120026
15.120270
15.120514
15.120728
15.120972
15.154663
15.154816
15.154999
15.155151
15.155334
15.155487
15.155670
15.155853
15.156006
15.156189
15.151245
15.151398
15.151581
15.151764
15.151947
15.152130
15.152283
15.152466
15.152649
15.152832
15.147675
15.147858
15.148071
15.148224
15.148407
15.148590
15.148804
15.148956
15.149170
15.149353
15.144012
15.144196
15.144379
15.144592
15.144775
15.144989
15.145172
15.145355
15.145538
15.145721
15.140198
15.140411
15.140594
15.140808
15.140991
15.141205
15.141388
15.141602
15.141815
15.141998
15.136261
15.136444
15.136658
15.136871
15.137085
15.137299
15.137512
15.137695
15.137909
15.138123
15.132172
15.132385
15.132599
15.132812
15.133026
15.133240
15.133453
15.133667
15.133881
15.134094
15.127930
15.128143
15.128387
15.128601
15.128815
15.129059
15.129272
15.129486
15.129730
15.129944
15.123535
15.123779
15.123993
15.124237
15.124481
15.124695
15.124939
15.125153
15.125397
15.125641
15.118988
15.119232
15.119476
15.119720
15.119965
15.120209
15.120453
15.120697
15.120941
15.121155
15.154785
15.154968
15.155121
15.155304
15.155457
15.155640
15.155792
15.155975
15.156128
15.156311
15.151367
15.151550
15.151733
15.151917
15.152069
15.152252
15.152435
15.152618
15.152771
15.152954
15.147827
15.148010
15.148193
15.148376
15.148560
15.148743
15.148926
15.149109
15.149292
15.149475
15.144165
15.144348
15.144531
15.144745
15.144928
15.145111
15.145325
15.145508
15.145691
15.145874
15.140350
15.140564
15.140747
15.140961
15.141144
15.141357
15.141571
15.141754
15.141968
15.142151
15.136414
15.136627
15.136841
15.137054
15.137238
15.137451
15.137665
15.137848
15.138062
15.138275
15.132324
15.132538
15.132751
15.132996
15.133209
15.133423
15.133636
15.133850
15.134064
15.134277
15.128113
15.128326
15.128540
15.128784
15.128998
15.129211
15.129456
15.129669
15.129883
15.130127
15.123718
15.123962
15.124176
15.124420
15.124664
15.124878
15.125122
15.125336
15.125580
15.125824
15.119171
15.119415
15.119659
15.119904
15.120148
15.120392
15.120636
15.120880
15.121124
15.121338
15.154907
15.155090
15.155273
15.155426
15.155579
15.155792
15.155945
15.156097
15.156281
15.156433
15.151520
15.151703
15.151855
15.152039
15.152222
15.152405
15.152588
15.152740
15.152924
15.153107
15.147980
15.148163
15.148346
15.148529
15.148712
15.148895
15.149078
15.149261
15.149445
15.149628
15.144318
15.144501
15.144684
15.144897
15.145081
15.145264
15.145447
15.145660
15.145844
15.146027
15.140503
15.140717
15.140900
15.141113
15.141296
15.141510
15.141724
15.141907
15.142120
15.142303
15.136566
15.136780
15.136993
15.137207
15.137421
15.137604
15.137817
15.138031
15.138214
15.138428
15.132507
15.132721
15.132935
15.133148
15.133362
15.133575
15.133789
15.134003
15.134216
15.134430
15.128265
15.128510
15.128723
15.128937
15.129181
15.129395
15.129639
15.129852
15.130066
15.130280
15.123901
15.124146
15.124359
15.124603
15.124817
15.125061
15.125305
15.125519
15.125763
15.126007
15.119354
15.119598
15.119843
15.120087
15.120331
15.120575
15.120819
15.121063
15.121307
15.121552
15.155060
15.155243
15.155396
15.155579
15.155731
15.155914
15.156067
15.156250
15.156403
15.156586
15.151642
15.151825
15.152008
15.152191
15.152374
15.152527
15.152710
15.152893
15.153046
15.153229
15.148132
15.148315
15.148499
15.148682
15.148865
15.149048
15.149231
15.149384
15.149597
15.149780
15.144470
15.144653
15.144836
15.145050
15.145233
15.145416
15.145599
15.145813
15.145996
15.146179
15.140656
15.140869
15.141083
15.141266
15.141479
15.141663
15.141876
15.142059
15.142273
15.142456
15.136749
15.136932
15.137146
15.137360
15.137573
15.137787
15.137970
15.138184
15.138397
15.138611
15.132660
15.132874
15.133087
15.133301
15.133514
15.133759
15.133972
15.134186
15.134399
15.134583
15.128448
15.128662
15.128906
15.129120
15.129333
15.129578
15.129791
15.130005
15.130249
15.130463
15.124084
15.124298
15.124542
15.124786
15.125000
15.125244
15.125458
15.125702
15.125946
15.126160
15.119568
15.119781
15.120026
15.120270
15.120514
15.120758
15.121002
15.121246
15.121490
15.121735
15.155182
15.155365
15.155548
15.155701
15.155884
15.156036
15.156219
15.156372
15.156555
15.156708
15.151794
15.151978
15.152130
15.152313
15.152496
15.152679
15.152832
15.153015
15.153198
15.153381
15.148254
15.148468
15.148621
15.148804
15.148987
15.149170
15.149353
15.149536
15.149719
15.149902
15.144623
15.144806
15.144989
15.145203
15.145386
15.145569
15.145752
15.145966
15.146149
15.146332
15.140808
15.141022
15.141205
15.141418
15.141632
15.141815
15.142029
15.142212
15.142426
15.142609
15.136902
15.137115
15.137329
15.137512
15.137726
15.137939
15.138123
15.138336
15.138550
15.138763
15.132843
15.133057
15.133270
15.133484
15.133698
15.133911
15.134125
15.134338
15.134552
15.134766
15.128632
15.128845
15.129059
15.129303
15.129517
15.129730
15.129974
15.130188
15.130402
15.130646
15.124268
15.124481
15.124725
15.124969
15.125183
15.125427
15.125641
15.125885
15.126099
15.126343
15.119751
15.119995
15.120239
15.120453
15.120697
15.120941
15.121185
15.121429
15.121674
15.121887
15.155334
15.155487
15.155670
15.155853
15.156006
15.156158
15.156342
15.156494
15.156677
15.156830
15.151947
15.152100
15.152283
15.152466
15.152649
15.152802
15.152985
15.153168
15.153320
15.153503
15.148407
15.148590
15.148773
15.148956
15.149139
15.149323
15.149506
15.149689
15.149872
15.150055
15.144775
15.144958
15.145142
15.145325
15.145538
15.145721
15.145905
15.146088
15.146301
15.146484
15.140961
15.141174
15.141388
15.141571
15.141785
15.141968
15.142181
15.142365
15.142548
15.142761
15.137085
15.137268
15.137482
15.137695
15.137878
15.138092
15.138306
15.138489
15.138702
15.138916
15.132996
15.133209
15.133423
15.133636
15.133850
15.134064
15.134277
15.134491
15.134705
15.134918
15.128784
15.129028
15.129242
15.129486
15.129700
15.129913
15.130127
15.130371
15.130585
15.130798
15.124420
15.124664
15.124908
15.125122
15.125366
15.125580
15.125824
15.126068
15.126282
15.126526
15.119934
15.120178
15.120422
15.120636
15.120880
15.121124
15.121368
15.121613
15.121857
15.122070

SCALARS Alpha float 1
LOOKUP_TABLE default
0.053499
0.053499
0.053500
0.053500
0.053500
0.053500
0.053501
0.053501
0.053501
0.053501
0.053497
0.053497
0.053498
0.053498
0.053498
0.053498
0.053499
0.053499
0.053499
0.053499
0.053495
0.053495
0.053495
0.053496
0.053496
0.053496
0.053497
0.053497
0.053497
0.053497
0.053493
0.053493
0.053493
0.053493
0.053494
0.053494
0.053494
0.053494
0.053495
0.053495
0.053490
0.053491
0.053491
0.053491
0.053491
0.053492
0.053492
0.053492
0.053493
0.053493
0.053488
0.053488
0.053489
0.053489
0.053489
0.053489
0.053490
0.053490
0.053490
0.053490
0.053485
0.053486
0.053486
0.053486
0.053487
0.053487
0.053487
0.053487
0.053488
0.053488
0.053483
0.053483
0.053483
0.053484
0.053484
0.053484
0.053485
0.053485
0.053485
0.053485
0.053480
0.053481
0.053481
0.053481
0.053481
0.053482
0.053482
0.053482
0.053482
0.053483
0.053477
0.053478
0.053478
0.053478
0.053479
0.053479
0.053479
0.053479
0.053480
0.053480
0.053499
0.053499
0.053500
0.053500
0.053500
0.053500
0.053501
0.053501
0.053501
0.053501
0.053497
0.053497
0.053498
0.053498
0.053498
0.053498
0.053499
0.053499
0.053499
0.053499
0.053495
0.053495
0.053496
0.053496
0.053496
0.053496
0.053496
0.053497
0.053497
0.053497
0.053493
0.053493
0.053493
0.053494
0.053494
0.053494
0.053494
0.053495
0.053495
0.053495
0.053491
0.053491
0.053491
0.053491
0.053492
0.053492
0.053492
0.053492
0.053493
0.053493
0.053488
0.053488
0.053489
0.053489
0.053489
0.053489
0.053490
0.053490
0.053490
0.053491
0.053486
0.053486
0.053486
0.053486
0.053487
0.053487
0.053487
0.053488
0.053488
0.053488
0.053483
0.053483
0.053484
0.053484
0.053484
0.053484
0.053485
0.053485
0.053485
0.053486
0.053480
0.053481
0.053481
0.053481
0.053481
0.053482
0.053482
0.053482
0.053483
0.053483
0.053478
0.053478
0.053478
0.053478
0.053479
0.053479
0.053479
0.053479
0.053480
0.053480
0.053499
0.053500
0.053500
0.053500
0.053500
0.053500
0.053501
0.053501
0.053501
0.053501
0.053497
0.053498
0.053498
0.053498
0.053498
0.053498
0.053499
0.053499
0.053499
0.053499
0.053495
0.053495
0.053496
0.053496
0.053496
0.053496
0.053497
0.053497
0.053497
0.053497
0.053493
0.053493
0.053493
0.053494
0.053494
0.053494
0.053495
0.053495
0.053495
0.053495
0.053491
0.053491
0.053491
0.053491
0.053492
0.053492
0.053492
0.053492
0.053493
0.053493
0.053488
0.053489
0.053489
0.053489
0.053489
0.053490
0.053490
0.053490
0.053490
0.053491
0.053486
0.053486
0.053486
0.053487
0.053487
0.053487
0.053487
0.053488
0.053488
0.053488
0.053483
0.053483
0.053484
0.053484
0.053484
0.053485
0.053485
0.053485
0.053485
0.053486
0.053481
0.053481
0.053481
0.053481
0.053482
0.053482
0.053482
0.053482
0.053483
0.053483
0.053478
0.053478
0.053478
0.053479
0.053479
0.053479
0.053479
0.053480
0.053480
0.053480
0.053499
0.053500
0.053500
0.053500
0.053500
0.053501
0.053501
0.053501
0.053501
0.053502
0.053497
0.053498
0.053498
0.053498
0.053498
0.053499
0.053499
0.053499
0.053499
0.053500
0.053495
0.053496
0.053496
0.053496
0.053496
0.053497
0.053497
0.053497
0.053497
0.053498
0.053493
0.053493
0.053494
0.053494
0.053494
0.053494
0.053495
0.053495
0.053495
0.053495
0.053491
0.053491
0.053491
0.053491
0.053492
0.053492
0.053492
0.053493
0.053493
0.053493
0.053488
0.053489
0.053489
0.053489
0.053489
0.053490
0.053490
0.053490
0.053490
0.053491
0.053486
0.053486
0.053486
0.053487
0.053487
0.053487
0.053487
0.053488
0.053488
0.053488
0.053483
0.053484
0.053484
0.053484
0.053484
0.053485
0.053485
0.053485
0.053485
0.053486
0.053481
0.053481
0.053481
0.053481
0.053482
0.053482
0.053482
0.053483
0.053483
0.053483
0.053478
0.053478
0.053478
0.053479
0.053479
0.053479
0.053480
0.053480
0.053480
0.053480
0.053499
0.053500
0.053500
0.053500
0.053500
0.053501
0.053501
0.053501
0.053501
0.053502
0.053497
0.053498
0.053498
0.053498
0.053498
0.053499
0.053499
0.053499
0.053499
0.053500
0.053495
0.053496
0.053496
0.053496
0.053496
0.053497
0.053497
0.053497
0.053497
0.053498
0.053493
0.053493
0.053494
0.053494
0.053494
0.053494
0.053495
0.053495
0.053495
0.053495
0.053491
0.053491
0.053491
0.053492
0.053492
0.053492
0.053492
0.053493
0.053493
0.053493
0.053488
0.053489
0.053489
0.053489
0.053490
0.053490
0.053490
0.053490
0.053491
0.053491
0.053486
0.053486
0.053486
0.053487
0.053487
0.053487
0.053488
0.053488
0.053488
0.053488
0.053483
0.053484
0.053484
0.053484
0.053485
0.053485
0.053485
0.053485
0.053486
0.053486
0.053481
0.053481
0.053481
0.053482
0.053482
0.053482
0.053482
0.053483
0.053483
0.053483
0.053478
0.053478
0.053478
0.053479
0.053479
0.053479
0.053480
0.053480
0.053480
0.053481
0.053500
0.053500
0.053500
0.053500
0.053501
0.053501
0.053501
0.053501
0.053501
0.053502
0.053498
0.053498
0.053498
0.053498
0.053498
0.053499
0.053499
0.053499
0.053500
0.053500
0.053495
0.053496
0.053496
0.053496
0.053496
0.053497
0.053497
0.053497
0.053497
0.053498
0.053493
0.053494
0.053494
0.053494
0.053494
0.053495
0.053495
0.053495
0.053495
0.053496
0.053491
0.053491
0.053491
0.053492
0.053492
0.053492
0.053493
0.053493
0.053493
0.053493
0.053489
0.053489
0.053489
0.053489
0.053490
0.053490
0.053490
0.053490
0.053491
0.053491
0.053486
0.053486
0.053487
0.053487
0.053487
0.053487
0.053488
0.053488
0.053488
0.053489
0.053484
0.053484
0.053484
0.053484
0.053485
0.053485
0.053485
0.053485
0.053486
0.053486
0.053481
0.053481
0.053481
0.053482
0.053482
0.053482
0.053483
0.053483
0.053483
0.053483
0.053478
0.053478
0.053479
0.053479
0.053479
0.053479
0.053480
0.053480
0.053480
0.053481
0.053500
0.053500
0.053500
0.053500
0.053501
0.053501
0.053501
0.053501
0.053502
0.053502
0.053498
0.053498
0.053498
0.053498
0.053499
0.053499
0.053499
0.053499
0.053500
0.053500
0.053496
0.053496
0.053496
0.053496
0.053496
0.053497
0.053497
0.053497
0.053498
0.053498
0.053493
0.053494
0.053494
0.053494
0.053494
0.053495
0.053495
0.053495
0.053495
0.053496
0.053491
0.053491
0.053492
0.053492
0.053492
0.053492
0.053493
0.053493
0.053493
0.053493
0.053489
0.053489
0.053489
0.053490
0.053490
0.053490
0.053490
0.053491
0.053491
0.053491
0.053486
0.053487
0.053487
0.053487
0.053487
0.053488
0.053488
0.053488
0.053488
0.053489
0.053484
0.053484
0.053484
0.053484
0.053485
0.053485
0.053485
0.053486
0.053486
0.053486
0.053481
0.053481
0.053482
0.053482
0.053482
0.053482
0.053483
0.053483
0.053483
0.053483
0.053478
0.053478
0.053479
0.053479
0.053479
0.053480
0.053480
0.053480
0.053481
0.053481
0.053500
0.053500
0.053500
0.053500
0.053501
0.053501
0.053501
0.053501
0.053502
0.053502
0.053498
0.053498
0.053498
0.053498
0.053499
0.053499
0.053499
0.053499
0.053500
0.053500
0.053496
0.053496
0.053496
0.053496
0.053497
0.053497
0.053497
0.053497
0.053498
0.053498
0.053493
0.053494
0.053494
0.053494
0.053494
0.053495
0.053495
0.053495
0.053495
0.053496
0.053491
0.053491
0.053492
0.053492
0.053492
0.053493
0.053493
0.053493
0.053493
0.053493
0.053489
0.053489
0.053489
0.053490
0.053490
0.053490
0.053490
0.053491
0.053491
0.053491
0.053486
0.053487
0.053487
0.053487
0.053487
0.053488
0.053488
0.053488
0.053489
0.053489
0.053484
0.053484
0.053484
0.053485
0.053485
0.053485
0.053485
0.053486
0.053486
0.053486
0.053481
0.053481
0.053482
0.053482
0.053482
0.053483
0.053483
0.053483
0.053483
0.053484
0.053478
0.053479
0.053479
0.053479
0.053479
0.053480
0.053480
0.053480
0.053481
0.053481
0.053500
0.053500
0.053500
0.053501
0.053501
0.053501
0.053501
0.053502
0.053502
0.053502
0.053498
0.053498
0.053498
0.053499
0.053499
0.053499
0.053499
0.053500
0.053500
0.053500
0.053496
0.053496
0.053496
0.053496
0.053497
0.053497
0.053497
0.053497
0.053498
0.053498
0.053494
0.053494
0.053494
0.053494
0.053495
0.053495
0.053495
0.053495
0.053496
0.053496
0.053491
0.053492
0.053492
0.053492
0.053492
0.053493
0.053493
0.053493
0.053493
0.053494
0.053489
0.053489
0.053490
0.053490
0.053490
0.053490
0.053491
0.053491
0.053491
0.053491
0.053487
0.053487
0.053487
0.053487
0.053488
0.053488
0.053488
0.053488
0.053489
0.053489
0.053484
0.053484
0.053485
0.053485
0.053485
0.053485
0.053486
0.053486
0.053486
0.053486
0.053481
0.053482
0.053482
0.053482
0.053482
0.053483
0.053483
0.053483
0.053483
0.053484
0.053478
0.053479
0.053479
0.053479
0.053480
0.053480
0.053480
0.053480
0.053481
0.053481
0.053500
0.053500
0.053500
0.053501
0.053501
0.053501
0.053501
0.053502
0.053502
0.053502
0.053498
0.053498
0.053498
0.053499
0.053499
0.053499
0.053499
0.053500
0.053500
0.053500
0.053496
0.053496
0.053496
0.053497
0.053497
0.053497
0.053497
0.053498
0.053498
0.053498
0.053494
0.053494
0.053494
0.053494
0.053495
0.053495
0.053495
0.053495
0.053496
0.053496
0.053491
0.053492
0.053492
0.053492
0.053492
0.053493
0.053493
0.053493
0.053493
0.053494
0.053489
0.053489
0.053490
0.053490
0.053490
0.053490
0.053491
0.053491
0.053491
0.053491
0.053487
0.053487
0.053487
0.053487
0.053488
0.053488
0.053488
0.053489
0.053489
0.053489
0.053484
0.053484
0.053485
0.053485
0.053485
0.053485
0.053486
0.053486
0.053486
0.053486
0.053481
0.053482
0.053482
0.053482
0.053483
0.053483
0.053483
0.053483
0.053484
0.053484
0.053479
0.053479
0.053479
0.053479
0.053480
0.053480
0.053480
0.053481
0.053481
0.053481
