# vtk DataFile Version 3.0
PINN prediction t=0.0
ASCII
DATASET UNSTRUCTURED_GRID
POINTS 1000 float
0.000000 0.000000 0.000000
0.000000 0.000000 0.044444
0.000000 0.000000 0.088889
0.000000 0.000000 0.133333
0.000000 0.000000 0.177778
0.000000 0.000000 0.222222
0.000000 0.000000 0.266667
0.000000 0.000000 0.311111
0.000000 0.000000 0.355556
0.000000 0.000000 0.400000
0.000000 0.088889 0.000000
0.000000 0.088889 0.044444
0.000000 0.088889 0.088889
0.000000 0.088889 0.133333
0.000000 0.088889 0.177778
0.000000 0.088889 0.222222
0.000000 0.088889 0.266667
0.000000 0.088889 0.311111
0.000000 0.088889 0.355556
0.000000 0.088889 0.400000
0.000000 0.177778 0.000000
0.000000 0.177778 0.044444
0.000000 0.177778 0.088889
0.000000 0.177778 0.133333
0.000000 0.177778 0.177778
0.000000 0.177778 0.222222
0.000000 0.177778 0.266667
0.000000 0.177778 0.311111
0.000000 0.177778 0.355556
0.000000 0.177778 0.400000
0.000000 0.266667 0.000000
0.000000 0.266667 0.044444
0.000000 0.266667 0.088889
0.000000 0.266667 0.133333
0.000000 0.266667 0.177778
0.000000 0.266667 0.222222
0.000000 0.266667 0.266667
0.000000 0.266667 0.311111
0.000000 0.266667 0.355556
0.000000 0.266667 0.400000
0.000000 0.355556 0.000000
0.000000 0.355556 0.044444
0.000000 0.355556 0.088889
0.000000 0.355556 0.133333
0.000000 0.355556 0.177778
0.000000 0.355556 0.222222
0.000000 0.355556 0.266667
0.000000 0.355556 0.311111
0.000000 0.355556 0.355556
0.000000 0.355556 0.400000
0.000000 0.444444 0.000000
0.000000 0.444444 0.044444
0.000000 0.444444 0.088889
0.000000 0.444444 0.133333
0.000000 0.444444 0.177778
0.000000 0.444444 0.222222
0.000000 0.444444 0.266667
0.000000 0.444444 0.311111
0.000000 0.444444 0.355556
0.000000 0.444444 0.400000
0.000000 0.533333 0.000000
0.000000 0.533333 0.044444
0.000000 0.533333 0.088889
0.000000 0.533333 0.133333
0.000000 0.533333 0.177778
0.000000 0.533333 0.222222
0.000000 0.533333 0.266667
0.000000 0.533333 0.311111
0.000000 0.533333 0.355556
0.000000 0.533333 0.400000
0.000000 0.622222 0.000000
0.000000 0.622222 0.044444
0.000000 0.622222 0.088889
0.000000 0.622222 0.133333
0.000000 0.622222 0.177778
0.000000 0.622222 0.222222
0.000000 0.622222 0.266667
0.000000 0.622222 0.311111
0.000000 0.622222 0.355556
0.000000 0.622222 0.400000
0.000000 0.711111 0.000000
0.000000 0.711111 0.044444
0.000000 0.711111 0.088889
0.000000 0.711111 0.133333
0.000000 0.711111 0.177778
0.000000 0.711111 0.222222
0.000000 0.711111 0.266667
0.000000 0.711111 0.311111
0.000000 0.711111 0.355556
0.000000 0.711111 0.400000
0.000000 0.800000 0.000000
0.000000 0.800000 0.044444
0.000000 0.800000 0.088889
0.000000 0.800000 0.133333
0.000000 0.800000 0.177778
0.000000 0.800000 0.222222
0.000000 0.800000 0.266667
0.000000 0.800000 0.311111
0.000000 0.800000 0.355556
0.000000 0.800000 0.400000
0.044444 0.000000 0.000000
0.044444 0.000000 0.044444
0.044444 0.000000 0.088889
0.044444 0.000000 0.133333
0.044444 0.000000 0.177778
0.044444 0.000000 0.222222
0.044444 0.000000 0.266667
0.044444 0.000000 0.311111
0.044444 0.000000 0.355556
0.044444 0.000000 0.400000
0.044444 0.088889 0.000000
0.044444 0.088889 0.044444
0.044444 0.088889 0.088889
0.044444 0.088889 0.133333
0.044444 0.088889 0.177778
0.044444 0.088889 0.222222
0.044444 0.088889 0.266667
0.044444 0.088889 0.311111
0.044444 0.088889 0.355556
0.044444 0.088889 0.400000
0.044444 0.177778 0.000000
0.044444 0.177778 0.044444
0.044444 0.177778 0.088889
0.044444 0.177778 0.133333
0.044444 0.177778 0.177778
0.044444 0.177778 0.222222
0.044444 0.177778 0.266667
0.044444 0.177778 0.311111
0.044444 0.177778 0.355556
0.044444 0.177778 0.400000
0.044444 0.266667 0.000000
0.044444 0.266667 0.044444
0.044444 0.266667 0.088889
0.044444 0.266667 0.133333
0.044444 0.266667 0.177778
0.044444 0.266667 0.222222
0.044444 0.266667 0.266667
0.044444 0.266667 0.311111
0.044444 0.266667 0.355556
0.044444 0.266667 0.400000
0.044444 0.355556 0.000000
0.044444 0.355556 0.044444
0.044444 0.355556 0.088889
0.044444 0.355556 0.133333
0.044444 0.355556 0.177778
0.044444 0.355556 0.222222
0.044444 0.355556 0.266667
0.044444 0.355556 0.311111
0.044444 0.355556 0.355556
0.044444 0.355556 0.400000
0.044444 0.444444 0.000000
0.044444 0.444444 0.044444
0.044444 0.444444 0.088889
0.044444 0.444444 0.133333
0.044444 0.444444 0.177778
0.044444 0.444444 0.222222
0.044444 0.444444 0.266667
0.044444 0.444444 0.311111
0.044444 0.444444 0.355556
0.044444 0.444444 0.400000
0.044444 0.533333 0.000000
0.044444 0.533333 0.044444
0.044444 0.533333 0.088889
0.044444 0.533333 0.133333
0.044444 0.533333 0.177778
0.044444 0.533333 0.222222
0.044444 0.533333 0.266667
0.044444 0.533333 0.311111
0.044444 0.533333 0.355556
0.044444 0.533333 0.400000
0.044444 0.622222 0.000000
0.044444 0.622222 0.044444
0.044444 0.622222 0.088889
0.044444 0.622222 0.133333
0.044444 0.622222 0.177778
0.044444 0.622222 0.222222
0.044444 0.622222 0.266667
0.044444 0.622222 0.311111
0.044444 0.622222 0.355556
0.044444 0.622222 0.400000
0.044444 0.711111 0.000000
0.044444 0.711111 0.044444
0.044444 0.711111 0.088889
0.044444 0.711111 0.133333
0.044444 0.711111 0.177778
0.044444 0.711111 0.222222
0.044444 0.711111 0.266667
0.044444 0.711111 0.311111
0.044444 0.711111 0.355556
0.044444 0.711111 0.400000
0.044444 0.800000 0.000000
0.044444 0.800000 0.044444
0.044444 0.800000 0.088889
0.044444 0.800000 0.133333
0.044444 0.800000 0.177778
0.044444 0.800000 0.222222
0.044444 0.800000 0.266667
0.044444 0.800000 0.311111
0.044444 0.800000 0.355556
0.044444 0.800000 0.400000
0.088889 0.000000 0.000000
0.088889 0.000000 0.044444
0.088889 0.000000 0.088889
0.088889 0.000000 0.133333
0.088889 0.000000 0.177778
0.088889 0.000000 0.222222
0.088889 0.000000 0.266667
0.088889 0.000000 0.311111
0.088889 0.000000 0.355556
0.088889 0.000000 0.400000
0.088889 0.088889 0.000000
0.088889 0.088889 0.044444
0.088889 0.088889 0.088889
0.088889 0.088889 0.133333
0.088889 0.088889 0.177778
0.088889 0.088889 0.222222
0.088889 0.088889 0.266667
0.088889 0.088889 0.311111
0.088889 0.088889 0.355556
0.088889 0.088889 0.400000
0.088889 0.177778 0.000000
0.088889 0.177778 0.044444
0.088889 0.177778 0.088889
0.088889 0.177778 0.133333
0.088889 0.177778 0.177778
0.088889 0.177778 0.222222
0.088889 0.177778 0.266667
0.088889 0.177778 0.311111
0.088889 0.177778 0.355556
0.088889 0.177778 0.400000
0.088889 0.266667 0.000000
0.088889 0.266667 0.044444
0.088889 0.266667 0.088889
0.088889 0.266667 0.133333
0.088889 0.266667 0.177778
0.088889 0.266667 0.222222
0.088889 0.266667 0.266667
0.088889 0.266667 0.311111
0.088889 0.266667 0.355556
0.088889 0.266667 0.400000
0.088889 0.355556 0.000000
0.088889 0.355556 0.044444
0.088889 0.355556 0.088889
0.088889 0.355556 0.133333
0.088889 0.355556 0.177778
0.088889 0.355556 0.222222
0.088889 0.355556 0.266667
0.088889 0.355556 0.311111
0.088889 0.355556 0.355556
0.088889 0.355556 0.400000
0.088889 0.444444 0.000000
0.088889 0.444444 0.044444
0.088889 0.444444 0.088889
0.088889 0.444444 0.133333
0.088889 0.444444 0.177778
0.088889 0.444444 0.222222
0.088889 0.444444 0.266667
0.088889 0.444444 0.311111
0.088889 0.444444 0.355556
0.088889 0.444444 0.400000
0.088889 0.533333 0.000000
0.088889 0.533333 0.044444
0.088889 0.533333 0.088889
0.088889 0.533333 0.133333
0.088889 0.533333 0.177778
0.088889 0.533333 0.222222
0.088889 0.533333 0.266667
0.088889 0.533333 0.311111
0.088889 0.533333 0.355556
0.088889 0.533333 0.400000
0.088889 0.622222 0.000000
0.088889 0.622222 0.044444
0.088889 0.622222 0.088889
0.088889 0.622222 0.133333
0.088889 0.622222 0.177778
0.088889 0.622222 0.222222
0.088889 0.622222 0.266667
0.088889 0.622222 0.311111
0.088889 0.622222 0.355556
0.088889 0.622222 0.400000
0.088889 0.711111 0.000000
0.088889 0.711111 0.044444
0.088889 0.711111 0.088889
0.088889 0.711111 0.133333
0.088889 0.711111 0.177778
0.088889 0.711111 0.222222
0.088889 0.711111 0.266667
0.088889 0.711111 0.311111
0.088889 0.711111 0.355556
0.088889 0.711111 0.400000
0.088889 0.800000 0.000000
0.088889 0.800000 0.044444
0.088889 0.800000 0.088889
0.088889 0.800000 0.133333
0.088889 0.800000 0.177778
0.088889 0.800000 0.222222
0.088889 0.800000 0.266667
0.088889 0.800000 0.311111
0.088889 0.800000 0.355556
0.088889 0.800000 0.400000
0.133333 0.000000 0.000000
0.133333 0.000000 0.044444
0.133333 0.000000 0.088889
0.133333 0.000000 0.133333
0.133333 0.000000 0.177778
0.133333 0.000000 0.222222
0.133333 0.000000 0.266667
0.133333 0.000000 0.311111
0.133333 0.000000 0.355556
0.133333 0.000000 0.400000
0.133333 0.088889 0.000000
0.133333 0.088889 0.044444
0.133333 0.088889 0.088889
0.133333 0.088889 0.133333
0.133333 0.088889 0.177778
0.133333 0.088889 0.222222
0.133333 0.088889 0.266667
0.133333 0.088889 0.311111
0.133333 0.088889 0.355556
0.133333 0.088889 0.400000
0.133333 0.177778 0.000000
0.133333 0.177778 0.044444
0.133333 0.177778 0.088889
0.133333 0.177778 0.133333
0.133333 0.177778 0.177778
0.133333 0.177778 0.222222
0.133333 0.177778 0.266667
0.133333 0.177778 0.311111
0.133333 0.177778 0.355556
0.133333 0.177778 0.400000
0.133333 0.266667 0.000000
0.133333 0.266667 0.044444
0.133333 0.266667 0.088889
0.133333 0.266667 0.133333
0.133333 0.266667 0.177778
0.133333 0.266667 0.222222
0.133333 0.266667 0.266667
0.133333 0.266667 0.311111
0.133333 0.266667 0.355556
0.133333 0.266667 0.400000
0.133333 0.355556 0.000000
0.133333 0.355556 0.044444
0.133333 0.355556 0.088889
0.133333 0.355556 0.133333
0.133333 0.355556 0.177778
0.133333 0.355556 0.222222
0.133333 0.355556 0.266667
0.133333 0.355556 0.311111
0.133333 0.355556 0.355556
0.133333 0.355556 0.400000
0.133333 0.444444 0.000000
0.133333 0.444444 0.044444
0.133333 0.444444 0.088889
0.133333 0.444444 0.133333
0.133333 0.444444 0.177778
0.133333 0.444444 0.222222
0.133333 0.444444 0.266667
0.133333 0.444444 0.311111
0.133333 0.444444 0.355556
0.133333 0.444444 0.400000
0.133333 0.533333 0.000000
0.133333 0.533333 0.044444
0.133333 0.533333 0.088889
0.133333 0.533333 0.133333
0.133333 0.533333 0.177778
0.133333 0.533333 0.222222
[...]
POINT_DATA 1000
SCALARS Temperature float 1
LOOKUP_TABLE default
27.733368
27.774750
27.811646
27.842255
27.864929
27.878174
27.880829
27.872162
27.851837
27.820068
27.962189
28.027039
28.093018
28.158447
28.221436
28.279907
28.331818
28.375275
28.408569
28.430389
27.998932
28.080658
28.166992
28.256683
28.348145
28.439362
28.528137
28.612000
28.688446
28.755127
27.884033
27.976166
28.073700
28.175903
28.281677
28.389526
28.497559
28.603577
28.705109
28.799438
27.595917
27.691803
27.791534
27.894714
28.000702
28.108612
28.217255
28.325134
28.430481
28.531219
27.109589
27.201477
27.294006
27.386871
27.479828
27.572418
27.664307
27.754852
27.843323
27.928772
26.421936
26.501160
26.577087
26.649597
26.718567
26.784149
26.846405
26.905609
26.961945
27.015656
25.540344
25.598694
25.650421
25.695526
25.734192
25.766785
25.793793
25.815979
25.834137
25.849274
24.472839
24.505035
24.528748
24.544159
24.551605
24.551666
24.545013
24.532593
24.515472
24.494904
23.232391
23.237701
23.234314
23.222565
23.202881
23.175873
23.142273
23.102997
23.059052
23.011688
27.820038
27.864929
27.903503
27.933990
27.954803
27.964630
27.962616
27.948303
27.921722
27.883331
28.033630
28.104431
28.174927
28.243256
28.307404
28.365265
28.414825
28.454376
28.482361
28.497772
28.045593
28.134277
28.226776
28.321594
28.416840
28.510315
28.599640
28.682312
28.755829
28.817871
27.907959
28.006927
28.111023
28.219299
28.330414
28.442596
28.553680
28.661285
28.762695
28.855103
27.603302
27.705048
27.810760
27.919891
28.031586
28.144806
28.258118
28.369751
28.477661
28.579498
27.105103
27.201599
27.298950
27.396851
27.494965
27.592804
27.689819
27.785248
27.878143
27.967285
26.408386
26.490906
26.570404
26.646729
26.719849
26.789795
26.856720
26.920746
26.982025
27.040649
25.520050
25.580719
25.634918
25.682739
25.724365
25.760193
25.790771
25.816864
25.839355
25.859161
24.448303
24.482147
24.507599
24.524841
24.534271
24.536469
24.532196
24.522461
24.508423
24.491364
23.205994
23.212585
23.210449
23.199921
23.181488
23.155792
23.123566
23.085846
23.043732
22.998474
27.902802
27.950348
27.989685
28.019104
28.037231
28.042999
28.035767
28.015472
27.982452
27.937469
28.105042
28.181061
28.255188
28.325378
28.389557
28.445618
28.491730
28.526245
28.547974
28.556183
28.093994
28.189301
28.287384
28.386475
28.484467
28.579041
28.667603
28.747650
28.816742
28.872772
27.934082
28.039764
28.150177
28.264038
28.379791
28.495392
28.608429
28.716278
28.816071
28.904938
27.612793
27.720520
27.832184
27.947052
28.064178
28.182190
28.299408
28.413818
28.523102
28.624664
27.102570
27.203766
27.306030
27.408997
27.512238
27.615173
27.717010
27.816864
27.913452
28.005371
26.396576
26.482513
26.565643
26.645874
26.723175
26.797546
26.869080
26.937866
27.003906
27.067139
25.501373
25.564331
25.621063
25.671600
25.716217
25.755310
25.789520
25.819641
25.846497
25.871033
24.425293
24.460724
24.487823
24.506805
24.518158
24.522491
24.520630
24.513672
24.502808
24.489441
23.181183
23.188934
23.187897
23.178497
23.161163
23.136627
23.105743
23.069519
23.029175
22.986145
27.980591
28.029816
28.068939
28.096466
28.111145
28.112213
28.099426
28.072937
28.033478
27.982086
28.175690
28.256104
28.332855
28.403778
28.466797
28.519867
28.561340
28.589783
28.604370
28.604645
28.143890
28.245300
28.348206
28.450592
28.550201
28.644470
28.730835
28.806763
28.869965
28.918549
27.962372
28.074585
28.190887
28.309753
28.429291
28.547180
28.660828
28.767365
28.863892
28.947540
27.624481
27.738190
27.855682
27.976074
28.098114
28.220215
28.340424
28.456451
28.565704
28.665344
27.102081
27.208099
27.315338
27.423340
27.531586
27.639282
27.745544
27.849121
27.948608
28.042175
26.386627
26.476013
26.562866
26.647064
26.728577
26.807343
26.883423
26.956787
27.027313
27.094666
25.484253
25.549561
25.608795
25.662079
25.709686
25.752136
25.790070
25.824249
25.855591
25.884918
24.403748
24.440674
24.469330
24.490051
24.503265
24.509705
24.510284
24.506165
24.498657
24.489227
23.157867
23.166626
23.166534
23.158051
23.141693
23.118225
23.088562
23.053833
23.015381
22.974731
28.052216
28.102081
28.140106
28.164917
28.175507
28.171478
28.152802
28.120117
28.074341
28.016846
28.244690
28.328552
28.406799
28.477234
28.537811
28.586731
28.622437
28.643890
28.650543
28.642303
28.194916
28.301727
28.408508
28.513062
28.612915
28.705414
28.788025
28.858307
28.914154
28.953979
27.992798
28.111206
28.232819
28.355835
28.478058
28.596985
28.709717
28.813293
28.904785
28.981476
27.638489
27.758087
27.881165
28.006622
28.132965
28.258301
28.380371
28.496613
28.604218
28.700195
27.103821
27.214691
27.326843
27.439789
27.552765
27.664856
27.774902
27.881439
27.982697
28.076630
26.378601
26.471527
26.562134
26.650330
26.735992
26.819122
26.899597
26.977295
27.051880
27.122803
25.468811
25.536377
25.598114
25.654144
25.704834
25.750702
25.792389
25.830750
25.866608
25.900787
24.383606
24.421906
24.452057
24.474396
24.489441
24.498016
24.501129
24.499969
24.496063
24.490906
23.135925
23.145477
23.146149
23.138428
23.122925
23.100403
23.071930
23.038757
23.002319
22.964386
28.116394
28.165985
28.201996
28.223358
28.229370
28.219879
28.195312
28.156464
28.104675
28.041534
28.311066
28.397217
28.475708
28.544403
28.601379
28.644928
28.673859
28.687469
28.685547
28.668457
28.246521
28.357819
28.467377
28.572784
28.671387
28.760559
28.837830
28.900879
28.947998
28.977936
28.025177
28.149261
28.275391
28.401550
28.525238
28.643646
28.753784
28.852631
28.937317
29.005280
27.654785
27.780090
27.908417
28.038361
28.168152
28.295593
28.418182
28.533081
28.637238
28.727692
27.107788
27.223541
27.340546
27.458191
27.575562
27.691467
27.804535
27.912994
28.014740
28.107452
26.372559
26.469055
26.563446
26.655609
26.745422
26.832764
26.917419
26.999084
27.077179
27.150879
25.454926
25.524811
25.589050
25.647858
25.701630
25.750946
25.796509
25.839111
25.879578
25.918610
24.364746
24.404358
24.435883
24.459778
24.476654
24.487396
24.493134
24.495239
24.495209
24.494751
23.115143
23.125305
23.126587
23.119446
23.104614
23.083008
23.055725
23.024231
22.990143
22.955353
28.171967
28.220245
28.253479
28.270813
28.271820
28.256775
28.226349
28.181641
28.124268
28.056030
28.373566
28.460785
28.538300
28.603973
28.656067
28.693207
28.714478
28.719543
28.708649
28.682526
28.297913
28.412659
28.523712
28.628479
28.724274
28.808472
28.878754
28.933197
28.970337
28.989471
28.059143
28.188202
28.317963
28.446014
28.569641
28.685883
28.791626
28.883881
28.959961
29.017731
27.673309
27.804016
27.937012
28.070679
28.202881
28.331146
28.452667
28.564423
28.663269
28.746338
27.114044
27.234589
27.356293
27.478302
27.599548
27.718567
27.833649
27.942780
28.043549
28.133392
26.368530
26.468628
26.566833
26.662933
26.756775
26.848114
26.936615
27.021729
27.102631
27.178162
25.442657
25.514801
25.581543
25.643158
25.700104
25.752960
25.802460
25.849426
25.894531
25.938354
24.347137
24.387878
24.420715
24.446106
24.464844
24.477875
24.486450
24.492096
24.496429
24.501190
23.095367
23.105927
23.107574
23.100891
23.086639
23.065918
23.039948
23.010406
22.979095
22.948181
28.217743
28.263824
28.293579
28.306396
28.302246
28.281616
28.245514
28.195404
28.133026
28.060425
28.430878
28.517914
28.593079
28.654480
28.700592
28.730316
28.743225
28.739288
28.719238
28.684296
28.348175
28.465118
28.576202
28.678711
28.770020
28.847626
28.909454
28.953918
28.980133
28.987915
28.094238
28.227386
28.359528
28.488068
28.609985
28.722229
28.821686
28.905518
28.971436
29.017700
27.693878
27.829498
27.966461
28.102844
28.236206
28.363770
28.482483
28.589203
28.680847
28.754791
27.122559
27.247772
27.373871
27.499817
27.624207
27.745392
27.861359
27.969696
28.067810
28.153015
26.366547
26.470245
26.572205
26.672150
26.769867
26.864929
26.956848
27.044739
27.127563
27.203735
25.431946
25.506348
25.575623
25.640076
25.700256
25.756775
25.810364
25.861755
25.911499
25.959900
24.330597
24.372375
24.406433
24.433350
24.454010
24.469513
24.481262
24.490906
24.500122
24.510712
23.076385
23.087097
23.088928
23.082550
23.068878
23.049103
23.024719
22.997559
22.969727
22.943542
28.252655
28.295715
28.321411
28.329407
28.320007
28.293976
28.252625
28.197632
28.130981
28.054932
28.481628
28.567078
28.638611
28.694550
28.733673
28.755249
28.759216
28.746124
28.717102
28.673767
28.396179
28.513855
28.623383
28.722015
28.807159
28.876556
28.928558
28.962067
28.976715
28.972992
28.129761
28.265869
28.399078
28.526428
28.644836
28.751160
28.842468
28.916229
28.970581
29.004547
27.716156
27.856049
27.996094
28.133972
28.266968
28.392090
28.506134
28.605896
28.688568
28.751892
27.133270
27.262909
27.392975
27.522186
27.648895
27.771118
27.886536
27.992462
28.086182
28.165039
26.366608
26.473907
26.579559
26.683197
26.784515
26.882904
26.977631
27.067505
27.151154
27.226685
25.422791
25.499451
25.571289
25.638672
25.702209
25.762512
25.820282
25.876129
25.930420
25.983093
24.315002
24.357758
24.393005
24.421509
24.444275
24.462555
24.477936
24.492126
24.506927
24.523956
23.057953
23.068604
23.070465
23.064331
23.051270
23.032684
23.010315
22.986206
22.962738
22.942444
28.275787
28.315125
28.336304
28.339325
28.324738
28.293671
28.247620
28.188477
28.118469
28.039978
28.524292
28.606812
28.673492
28.722900
28.754181
28.767059
28.761902
28.739746
28.702209
28.651367
28.440552
28.557434
28.663727
28.756714
28.834076
28.893921
28.934998
28.956818
28.959747
28.944946
28.164856
28.302612
28.435211
28.559601
28.672577
28.771088
28.852509
28.914795
28.956726
28.978058
27.739685
27.882996
28.024963
28.162933
28.293915
28.414703
28.522095
28.613098
28.685242
28.736908
27.145996
27.279694
27.413147
27.544830
27.672791
27.794708
27.907990
28.009766
28.097351
28.168243
26.368713
26.479553
26.588745
26.695923
26.800476
26.901672
26.998413
27.089264
27.172424
27.245880
25.415161
25.494110
25.568573
25.639008
25.706055
25.770294
25.832367
25.892639
25.951233
26.007629
24.300262
24.343903
24.380432
24.410645
24.435822
24.457336
24.476929
24.496399
24.517426
24.541565
23.039825
23.050232
23.052063
23.046173
23.033936
23.016907
22.997192
22.977051
22.959137
22.946045

SCALARS Alpha float 1
LOOKUP_TABLE default
-0.002040
-0.001592
-0.001150
-0.000716
-0.000293
0.000115
0.000506
0.000874
0.001216
0.001527
-0.001184
-0.000750
-0.000315
0.000118
0.000544
0.000960
0.001361
0.001742
0.002099
0.002426
-0.000349
0.000046
0.000444
0.000842
0.001238
0.001626
0.002004
0.002367
0.002708
0.003022
0.000394
0.000723
0.001055
0.001387
0.001718
0.002044
0.002363
0.002669
0.002959
0.003228
0.000904
0.001146
0.001387
0.001627
0.001865
0.002099
0.002326
0.002545
0.002752
0.002944
0.001119
0.001258
0.001394
0.001526
0.001653
0.001774
0.001890
0.001998
0.002098
0.002189
0.001069
0.001102
0.001128
0.001147
0.001158
0.001162
0.001158
0.001147
0.001129
0.001106
0.000820
0.000751
0.000672
0.000584
0.000486
0.000380
0.000265
0.000143
0.000015
-0.000118
0.000427
0.000266
0.000094
-0.000087
-0.000278
-0.000476
-0.000683
-0.000895
-0.001113
-0.001335
-0.000070
-0.000309
-0.000556
-0.000811
-0.001073
-0.001340
-0.001613
-0.001890
-0.002170
-0.002453
-0.001919
-0.001448
-0.000985
-0.000532
-0.000093
0.000329
0.000730
0.001106
0.001452
0.001765
-0.001103
-0.000645
-0.000189
0.000263
0.000706
0.001136
0.001549
0.001938
0.002299
0.002626
-0.000310
0.000106
0.000524
0.000941
0.001354
0.001758
0.002148
0.002520
0.002867
0.003182
0.000408
0.000755
0.001104
0.001454
0.001801
0.002142
0.002474
0.002791
0.003089
0.003361
0.000911
0.001165
0.001421
0.001675
0.001927
0.002174
0.002415
0.002645
0.002862
0.003061
0.001123
0.001272
0.001417
0.001559
0.001696
0.001828
0.001955
0.002074
0.002184
0.002284
0.001072
0.001110
0.001142
0.001166
0.001183
0.001193
0.001196
0.001193
0.001184
0.001170
0.000823
0.000755
0.000678
0.000591
0.000495
0.000391
0.000279
0.000161
0.000037
-0.000090
0.000433
0.000270
0.000096
-0.000086
-0.000278
-0.000478
-0.000685
-0.000899
-0.001117
-0.001337
-0.000059
-0.000301
-0.000552
-0.000810
-0.001075
-0.001347
-0.001623
-0.001904
-0.002188
-0.002474
-0.001793
-0.001300
-0.000818
-0.000348
0.000105
0.000537
0.000946
0.001327
0.001675
0.001987
-0.001008
-0.000528
-0.000052
0.000418
0.000875
0.001316
0.001736
0.002130
0.002491
0.002815
-0.000255
0.000182
0.000619
0.001054
0.001482
0.001899
0.002298
0.002676
0.003024
0.003337
0.000438
0.000803
0.001169
0.001535
0.001897
0.002252
0.002594
0.002919
0.003221
0.003494
0.000931
0.001200
0.001469
0.001737
0.002003
0.002263
0.002514
0.002755
0.002979
0.003182
0.001140
0.001298
0.001453
0.001605
0.001753
0.001896
0.002032
0.002162
0.002281
0.002389
0.001085
0.001129
0.001165
0.001195
0.001219
0.001236
0.001247
0.001252
0.001252
0.001246
0.000834
0.000767
0.000691
0.000606
0.000512
0.000411
0.000302
0.000188
0.000070
-0.000050
0.000443
0.000279
0.000104
-0.000080
-0.000273
-0.000475
-0.000683
-0.000896
-0.001113
-0.001331
-0.000044
-0.000289
-0.000544
-0.000806
-0.001075
-0.001350
-0.001631
-0.001915
-0.002202
-0.002491
-0.001663
-0.001151
-0.000652
-0.000169
0.000295
0.000736
0.001150
0.001533
0.001881
0.002190
-0.000900
-0.000400
0.000094
0.000578
0.001047
0.001497
0.001921
0.002315
0.002672
0.002989
-0.000182
0.000274
0.000729
0.001179
0.001620
0.002046
0.002452
0.002831
0.003176
0.003482
0.000485
0.000866
0.001249
0.001630
0.002006
0.002372
0.002722
0.003052
0.003354
0.003622
0.000967
0.001249
0.001532
0.001814
0.002092
0.002363
0.002625
0.002873
0.003101
0.003304
0.001170
0.001338
0.001503
0.001665
0.001823
0.001976
0.002123
0.002261
0.002389
0.002502
0.001110
0.001158
0.001200
0.001236
0.001266
0.001291
0.001309
0.001323
0.001332
0.001335
0.000853
0.000787
0.000713
0.000630
0.000538
0.000440
0.000335
0.000226
0.000114
0.000002
0.000460
0.000294
0.000117
-0.000068
-0.000263
-0.000465
-0.000673
-0.000886
-0.001101
-0.001316
-0.000025
-0.000274
-0.000532
-0.000798
-0.001072
-0.001351
-0.001635
-0.001923
-0.002212
-0.002502
-0.001533
-0.001004
-0.000491
0.000004
0.000477
0.000923
0.001339
0.001722
0.002066
0.002369
-0.000781
-0.000263
0.000247
0.000742
0.001220
0.001673
0.002098
0.002488
0.002838
0.003144
-0.000095
0.000380
0.000851
0.001314
0.001765
0.002197
0.002605
0.002981
0.003319
0.003612
0.000547
0.000946
0.001344
0.001739
0.002126
0.002500
0.002855
0.003185
0.003483
0.003741
0.001017
0.001313
0.001610
0.001905
0.002194
0.002476
0.002745
0.002997
0.003226
0.003425
0.001213
0.001391
0.001566
0.001739
0.001907
0.002070
0.002226
0.002373
0.002506
0.002622
0.001145
0.001199
0.001247
0.001289
0.001326
0.001358
0.001385
0.001407
0.001425
0.001436
0.000880
0.000816
0.000743
0.000662
0.000573
0.000478
0.000379
0.000276
0.000171
0.000068
0.000483
0.000314
0.000136
-0.000051
-0.000247
-0.000449
-0.000657
-0.000868
-0.001079
-0.001289
-0.000003
-0.000256
-0.000518
-0.000788
-0.001065
-0.001348
-0.001635
-0.001926
-0.002216
-0.002505
-0.001407
-0.000863
-0.000338
0.000165
0.000644
0.001093
0.001509
0.001889
0.002228
0.002523
-0.000654
-0.000120
0.000402
0.000906
0.001388
0.001842
0.002264
0.002646
0.002985
0.003276
0.000008
0.000498
0.000983
0.001457
0.001914
0.002349
0.002753
0.003122
0.003448
0.003725
0.000626
0.001040
0.001453
0.001859
0.002255
0.002634
0.002990
0.003316
0.003604
0.003847
0.001083
0.001393
0.001702
0.002009
0.002309
0.002599
0.002873
0.003126
0.003351
0.003540
0.001270
0.001458
0.001644
0.001827
0.002005
0.002178
0.002341
0.002494
0.002630
0.002745
0.001192
0.001251
0.001305
0.001355
0.001399
0.001439
0.001475
0.001505
0.001530
0.001548
0.000916
0.000853
0.000782
0.000703
0.000618
0.000528
0.000434
0.000338
0.000243
0.000149
0.000511
0.000341
0.000161
-0.000028
-0.000224
-0.000426
-0.000632
-0.000840
-0.001046
-0.001248
0.000023
-0.000234
-0.000500
-0.000774
-0.001055
-0.001341
-0.001631
-0.001923
-0.002213
-0.002499
-0.001287
-0.000732
-0.000197
0.000312
0.000794
0.001243
0.001657
0.002031
0.002363
0.002649
-0.000522
0.000025
0.000556
0.001065
0.001548
0.001999
0.002413
0.002785
0.003109
0.003383
0.000123
0.000628
0.001124
0.001604
0.002064
0.002496
0.002894
0.003250
0.003559
0.003815
0.000720
0.001149
0.001574
0.001989
0.002391
0.002771
0.003124
0.003440
0.003714
0.003937
0.001164
0.001487
0.001809
0.002126
0.002434
0.002730
0.003005
0.003255
0.003471
0.003645
0.001341
0.001539
0.001735
0.001928
0.002116
0.002297
0.002467
0.002623
0.002758
0.002868
0.001250
0.001315
0.001376
0.001433
0.001485
0.001534
0.001578
0.001617
0.001648
0.001670
0.000960
0.000899
0.000831
0.000755
0.000674
0.000590
0.000503
0.000415
0.000329
0.000245
0.000544
0.000373
0.000192
0.000002
-0.000194
-0.000395
-0.000598
-0.000801
-0.001000
-0.001192
0.000052
-0.000209
-0.000480
-0.000757
-0.001042
-0.001330
-0.001622
-0.001913
-0.002201
-0.002482
-0.001177
-0.000613
-0.000072
0.000441
0.000923
0.001370
0.001779
0.002146
0.002469
0.002745
-0.000388
0.000169
0.000705
0.001216
0.001696
0.002140
0.002543
0.002900
0.003206
0.003461
0.000248
0.000765
0.001269
0.001753
0.002211
0.002636
0.003021
0.003361
0.003648
0.003879
0.000828
0.001270
0.001705
0.002127
0.002530
0.002908
0.003251
0.003553
0.003806
0.004004
0.001259
0.001595
0.001928
0.002254
0.002569
0.002866
0.003139
0.003380
0.003581
0.003735
0.001426
0.001635
0.001841
0.002044
0.002240
0.002428
0.002602
0.002757
0.002888
0.002986
0.001320
0.001392
0.001460
0.001525
0.001586
0.001643
0.001695
0.001741
0.001777
0.001800
0.001013
0.000955
0.000889
0.000818
0.000742
0.000664
0.000586
0.000508
0.000432
0.000357
0.000584
0.000411
0.000229
0.000039
-0.000156
-0.000354
-0.000553
-0.000748
-0.000938
-0.001118
0.000084
-0.000181
-0.000455
-0.000737
-0.001024
-0.001314
-0.001605
-0.001894
-0.002177
-0.002449
-0.001081
-0.000511
0.000033
0.000547
0.001027
0.001470
0.001872
0.002231
0.002543
0.002809
-0.000256
0.000307
0.000846
0.001354
0.001827
0.002260
0.002648
0.002987
0.003274
0.003508
0.000381
0.000907
0.001415
0.001898
0.002349
0.002763
0.003131
0.003449
0.003711
0.003915
0.000949
0.001402
0.001844
0.002269
0.002670
0.003039
0.003368
0.003650
0.003878
0.004046
0.001369
0.001717
0.002060
0.002393
0.002710
0.003005
0.003270
0.003497
0.003678
0.003805
0.001526
0.001744
0.001961
0.002172
0.002376
0.002568
0.002743
0.002894
0.003014
0.003094
0.001403
0.001482
0.001558
0.001631
0.001701
0.001766
0.001825
0.001876
0.001914
0.001933
0.001076
0.001020
0.000959
0.000893
0.000824
0.000754
0.000684
0.000616
0.000550
0.000484
0.000630
0.000455
0.000273
0.000084
-0.000108
-0.000302
-0.000494
-0.000680
-0.000858
-0.001024
0.000119
-0.000150
-0.000428
-0.000712
-0.001000
-0.001291
-0.001580
-0.001864
-0.002139
-0.002399
-0.001003
-0.000429
0.000116
0.000629
0.001105
0.001541
0.001935
0.002284
0.002586
0.002841
-0.000131
0.000435
0.000972
0.001474
0.001937
0.002356
0.002726
0.003045
0.003311
0.003523
0.000519
0.001050
0.001557
0.002034
0.002475
0.002871
0.003218
0.003511
0.003745
0.003920
0.001080
0.001541
0.001987
0.002411
0.002804
0.003160
0.003469
0.003726
0.003924
0.004059
0.001493
0.001851
0.002201
0.002538
0.002854
0.003142
0.003394
0.003601
0.003756
0.003851
0.001639
0.001868
0.002094
0.002313
0.002522
0.002715
0.002886
0.003027
0.003131
0.003188
0.001498
0.001585
0.001670
0.001752
0.001830
0.001902
0.001967
0.002020
0.002055
0.002065
0.001149
0.001097
0.001040
0.000980
0.000919
0.000859
0.000799
0.000741
0.000684
0.000624
0.000682
0.000507
0.000325
0.000139
-0.000050
-0.000237
-0.000420
-0.000595
-0.000759
-0.000911
0.000158
-0.000115
-0.000395
-0.000681
-0.000970
-0.001259
-0.001544
-0.001820
-0.002083
-0.002329
