# vtk DataFile Version 3.0
PINN prediction t=44689.65625
ASCII
DATASET UNSTRUCTURED_GRID
POINTS 1000 float
0.000000 0.000000 0.000000
0.000000 0.000000 0.044444
0.000000 0.000000 0.088889
0.000000 0.000000 0.133333
0.000000 0.000000 0.177778
0.000000 0.000000 0.222222
0.000000 0.000000 0.266667
0.000000 0.000000 0.311111
0.000000 0.000000 0.355556
0.000000 0.000000 0.400000
0.000000 0.088889 0.000000
0.000000 0.088889 0.044444
0.000000 0.088889 0.088889
0.000000 0.088889 0.133333
0.000000 0.088889 0.177778
0.000000 0.088889 0.222222
0.000000 0.088889 0.266667
0.000000 0.088889 0.311111
0.000000 0.088889 0.355556
0.000000 0.088889 0.400000
0.000000 0.177778 0.000000
0.000000 0.177778 0.044444
0.000000 0.177778 0.088889
0.000000 0.177778 0.133333
0.000000 0.177778 0.177778
0.000000 0.177778 0.222222
0.000000 0.177778 0.266667
0.000000 0.177778 0.311111
0.000000 0.177778 0.355556
0.000000 0.177778 0.400000
0.000000 0.266667 0.000000
0.000000 0.266667 0.044444
0.000000 0.266667 0.088889
0.000000 0.266667 0.133333
0.000000 0.266667 0.177778
0.000000 0.266667 0.222222
0.000000 0.266667 0.266667
0.000000 0.266667 0.311111
0.000000 0.266667 0.355556
0.000000 0.266667 0.400000
0.000000 0.355556 0.000000
0.000000 0.355556 0.044444
0.000000 0.355556 0.088889
0.000000 0.355556 0.133333
0.000000 0.355556 0.177778
0.000000 0.355556 0.222222
0.000000 0.355556 0.266667
0.000000 0.355556 0.311111
0.000000 0.355556 0.355556
0.000000 0.355556 0.400000
0.000000 0.444444 0.000000
0.000000 0.444444 0.044444
0.000000 0.444444 0.088889
0.000000 0.444444 0.133333
0.000000 0.444444 0.177778
0.000000 0.444444 0.222222
0.000000 0.444444 0.266667
0.000000 0.444444 0.311111
0.000000 0.444444 0.355556
0.000000 0.444444 0.400000
0.000000 0.533333 0.000000
0.000000 0.533333 0.044444
0.000000 0.533333 0.088889
0.000000 0.533333 0.133333
0.000000 0.533333 0.177778
0.000000 0.533333 0.222222
0.000000 0.533333 0.266667
0.000000 0.533333 0.311111
0.000000 0.533333 0.355556
0.000000 0.533333 0.400000
0.000000 0.622222 0.000000
0.000000 0.622222 0.044444
0.000000 0.622222 0.088889
0.000000 0.622222 0.133333
0.000000 0.622222 0.177778
0.000000 0.622222 0.222222
0.000000 0.622222 0.266667
0.000000 0.622222 0.311111
0.000000 0.622222 0.355556
0.000000 0.622222 0.400000
0.000000 0.711111 0.000000
0.000000 0.711111 0.044444
0.000000 0.711111 0.088889
0.000000 0.711111 0.133333
0.000000 0.711111 0.177778
0.000000 0.711111 0.222222
0.000000 0.711111 0.266667
0.000000 0.711111 0.311111
0.000000 0.711111 0.355556
0.000000 0.711111 0.400000
0.000000 0.800000 0.000000
0.000000 0.800000 0.044444
0.000000 0.800000 0.088889
0.000000 0.800000 0.133333
0.000000 0.800000 0.177778
0.000000 0.800000 0.222222
0.000000 0.800000 0.266667
0.000000 0.800000 0.311111
0.000000 0.800000 0.355556
0.000000 0.800000 0.400000
0.044444 0.000000 0.000000
0.044444 0.000000 0.044444
0.044444 0.000000 0.088889
0.044444 0.000000 0.133333
0.044444 0.000000 0.177778
0.044444 0.000000 0.222222
0.044444 0.000000 0.266667
0.044444 0.000000 0.311111
0.044444 0.000000 0.355556
0.044444 0.000000 0.400000
0.044444 0.088889 0.000000
0.044444 0.088889 0.044444
0.044444 0.088889 0.088889
0.044444 0.088889 0.133333
0.044444 0.088889 0.177778
0.044444 0.088889 0.222222
0.044444 0.088889 0.266667
0.044444 0.088889 0.311111
0.044444 0.088889 0.355556
0.044444 0.088889 0.400000
0.044444 0.177778 0.000000
0.044444 0.177778 0.044444
0.044444 0.177778 0.088889
0.044444 0.177778 0.133333
0.044444 0.177778 0.177778
0.044444 0.177778 0.222222
0.044444 0.177778 0.266667
0.044444 0.177778 0.311111
0.044444 0.177778 0.355556
0.044444 0.177778 0.400000
0.044444 0.266667 0.000000
0.044444 0.266667 0.044444
0.044444 0.266667 0.088889
0.044444 0.266667 0.133333
0.044444 0.266667 0.177778
0.044444 0.266667 0.222222
0.044444 0.266667 0.266667
0.044444 0.266667 0.311111
0.044444 0.266667 0.355556
0.044444 0.266667 0.400000
0.044444 0.355556 0.000000
0.044444 0.355556 0.044444
0.044444 0.355556 0.088889
0.044444 0.355556 0.133333
0.044444 0.355556 0.177778
0.044444 0.355556 0.222222
0.044444 0.355556 0.266667
0.044444 0.355556 0.311111
0.044444 0.355556 0.355556
0.044444 0.355556 0.400000
0.044444 0.444444 0.000000
0.044444 0.444444 0.044444
0.044444 0.444444 0.088889
0.044444 0.444444 0.133333
0.044444 0.444444 0.177778
0.044444 0.444444 0.222222
0.044444 0.444444 0.266667
0.044444 0.444444 0.311111
0.044444 0.444444 0.355556
0.044444 0.444444 0.400000
0.044444 0.533333 0.000000
0.044444 0.533333 0.044444
0.044444 0.533333 0.088889
0.044444 0.533333 0.133333
0.044444 0.533333 0.177778
0.044444 0.533333 0.222222
0.044444 0.533333 0.266667
0.044444 0.533333 0.311111
0.044444 0.533333 0.355556
0.044444 0.533333 0.400000
0.044444 0.622222 0.000000
0.044444 0.622222 0.044444
0.044444 0.622222 0.088889
0.044444 0.622222 0.133333
0.044444 0.622222 0.177778
0.044444 0.622222 0.222222
0.044444 0.622222 0.266667
0.044444 0.622222 0.311111
0.044444 0.622222 0.355556
0.044444 0.622222 0.400000
0.044444 0.711111 0.000000
0.044444 0.711111 0.044444
0.044444 0.711111 0.088889
0.044444 0.711111 0.133333
0.044444 0.711111 0.177778
0.044444 0.711111 0.222222
0.044444 0.711111 0.266667
0.044444 0.711111 0.311111
0.044444 0.711111 0.355556
0.044444 0.711111 0.400000
0.044444 0.800000 0.000000
0.044444 0.800000 0.044444
0.044444 0.800000 0.088889
0.044444 0.800000 0.133333
0.044444 0.800000 0.177778
0.044444 0.800000 0.222222
0.044444 0.800000 0.266667
0.044444 0.800000 0.311111
0.044444 0.800000 0.355556
0.044444 0.800000 0.400000
0.088889 0.000000 0.000000
0.088889 0.000000 0.044444
0.088889 0.000000 0.088889
0.088889 0.000000 0.133333
0.088889 0.000000 0.177778
0.088889 0.000000 0.222222
0.088889 0.000000 0.266667
0.088889 0.000000 0.311111
0.088889 0.000000 0.355556
0.088889 0.000000 0.400000
0.088889 0.088889 0.000000
0.088889 0.088889 0.044444
0.088889 0.088889 0.088889
0.088889 0.088889 0.133333
0.088889 0.088889 0.177778
0.088889 0.088889 0.222222
0.088889 0.088889 0.266667
0.088889 0.088889 0.311111
0.088889 0.088889 0.355556
0.088889 0.088889 0.400000
0.088889 0.177778 0.000000
0.088889 0.177778 0.044444
0.088889 0.177778 0.088889
0.088889 0.177778 0.133333
0.088889 0.177778 0.177778
0.088889 0.177778 0.222222
0.088889 0.177778 0.266667
0.088889 0.177778 0.311111
0.088889 0.177778 0.355556
0.088889 0.177778 0.400000
0.088889 0.266667 0.000000
0.088889 0.266667 0.044444
0.088889 0.266667 0.088889
0.088889 0.266667 0.133333
0.088889 0.266667 0.177778
0.088889 0.266667 0.222222
0.088889 0.266667 0.266667
0.088889 0.266667 0.311111
0.088889 0.266667 0.355556
0.088889 0.266667 0.400000
0.088889 0.355556 0.000000
0.088889 0.355556 0.044444
0.088889 0.355556 0.088889
0.088889 0.355556 0.133333
0.088889 0.355556 0.177778
0.088889 0.355556 0.222222
0.088889 0.355556 0.266667
0.088889 0.355556 0.311111
0.088889 0.355556 0.355556
0.088889 0.355556 0.400000
0.088889 0.444444 0.000000
0.088889 0.444444 0.044444
0.088889 0.444444 0.088889
0.088889 0.444444 0.133333
0.088889 0.444444 0.177778
0.088889 0.444444 0.222222
0.088889 0.444444 0.266667
0.088889 0.444444 0.311111
0.088889 0.444444 0.355556
0.088889 0.444444 0.400000
0.088889 0.533333 0.000000
0.088889 0.533333 0.044444
0.088889 0.533333 0.088889
0.088889 0.533333 0.133333
0.088889 0.533333 0.177778
0.088889 0.533333 0.222222
0.088889 0.533333 0.266667
0.088889 0.533333 0.311111
0.088889 0.533333 0.355556
0.088889 0.533333 0.400000
0.088889 0.622222 0.000000
0.088889 0.622222 0.044444
0.088889 0.622222 0.088889
0.088889 0.622222 0.133333
0.088889 0.622222 0.177778
0.088889 0.622222 0.222222
0.088889 0.622222 0.266667
0.088889 0.622222 0.311111
0.088889 0.622222 0.355556
0.088889 0.622222 0.400000
0.088889 0.711111 0.000000
0.088889 0.711111 0.044444
0.088889 0.711111 0.088889
0.088889 0.711111 0.133333
0.088889 0.711111 0.177778
0.088889 0.711111 0.222222
0.088889 0.711111 0.266667
0.088889 0.711111 0.311111
0.088889 0.711111 0.355556
0.088889 0.711111 0.400000
0.088889 0.800000 0.000000
0.088889 0.800000 0.044444
0.088889 0.800000 0.088889
0.088889 0.800000 0.133333
0.088889 0.800000 0.177778
0.088889 0.800000 0.222222
0.088889 0.800000 0.266667
0.088889 0.800000 0.311111
0.088889 0.800000 0.355556
0.088889 0.800000 0.400000
0.133333 0.000000 0.000000
0.133333 0.000000 0.044444
0.133333 0.000000 0.088889
0.133333 0.000000 0.133333
0.133333 0.000000 0.177778
0.133333 0.000000 0.222222
0.133333 0.000000 0.266667
0.133333 0.000000 0.311111
0.133333 0.000000 0.355556
0.133333 0.000000 0.400000
0.133333 0.088889 0.000000
0.133333 0.088889 0.044444
0.133333 0.088889 0.088889
0.133333 0.088889 0.133333
0.133333 0.088889 0.177778
0.133333 0.088889 0.222222
0.133333 0.088889 0.266667
0.133333 0.088889 0.311111
0.133333 0.088889 0.355556
0.133333 0.088889 0.400000
0.133333 0.177778 0.000000
0.133333 0.177778 0.044444
0.133333 0.177778 0.088889
0.133333 0.177778 0.133333
0.133333 0.177778 0.177778
0.133333 0.177778 0.222222
0.133333 0.177778 0.266667
0.133333 0.177778 0.311111
0.133333 0.177778 0.355556
0.133333 0.177778 0.400000
0.133333 0.266667 0.000000
0.133333 0.266667 0.044444
0.133333 0.266667 0.088889
0.133333 0.266667 0.133333
0.133333 0.266667 0.177778
0.133333 0.266667 0.222222
0.133333 0.266667 0.266667
0.133333 0.266667 0.311111
0.133333 0.266667 0.355556
0.133333 0.266667 0.400000
0.133333 0.355556 0.000000
0.133333 0.355556 0.044444
0.133333 0.355556 0.088889
0.133333 0.355556 0.133333
0.133333 0.355556 0.177778
0.133333 0.355556 0.222222
0.133333 0.355556 0.266667
0.133333 0.355556 0.311111
0.133333 0.355556 0.355556
0.133333 0.355556 0.400000
0.133333 0.444444 0.000000
0.133333 0.444444 0.044444
0.133333 0.444444 0.088889
0.133333 0.444444 0.133333
0.133333 0.444444 0.177778
0.133333 0.444444 0.222222
0.133333 0.444444 0.266667
0.133333 0.444444 0.311111
0.133333 0.444444 0.355556
0.133333 0.444444 0.400000
0.133333 0.533333 0.000000
0.133333 0.533333 0.044444
0.133333 0.533333 0.088889
0.133333 0.533333 0.133333
0.133333 0.533333 0.177778
0.133333 0.533333 0.222222
[...]
POINT_DATA 1000
SCALARS Temperature float 1
LOOKUP_TABLE default
118.904999
118.904999
118.905182
118.905243
118.905365
118.905518
118.905548
118.905640
118.905701
118.905884
118.906708
118.906708
118.906891
118.906952
118.907013
118.907135
118.907227
118.907318
118.907440
118.907501
118.908234
118.908356
118.908478
118.908508
118.908600
118.908722
118.908844
118.908905
118.908997
118.909027
118.909729
118.909912
118.909973
118.910065
118.910187
118.910248
118.910278
118.910431
118.910553
118.910614
118.911194
118.911224
118.911346
118.911346
118.911469
118.911530
118.911713
118.911804
118.911896
118.911957
118.912598
118.912567
118.912750
118.912720
118.912872
118.912933
118.913055
118.913116
118.913208
118.913330
118.913940
118.913879
118.914062
118.914124
118.914185
118.914215
118.914368
118.914368
118.914520
118.914490
118.915070
118.915161
118.915222
118.915375
118.915405
118.915527
118.915619
118.915680
118.915710
118.915863
118.916351
118.916412
118.916473
118.916534
118.916656
118.916687
118.916809
118.916840
118.916931
118.917023
118.917419
118.917480
118.917572
118.917603
118.917694
118.917816
118.917877
118.917908
118.918030
118.918091
118.904999
118.905121
118.905243
118.905396
118.905518
118.905548
118.905640
118.905701
118.905884
118.906036
118.906708
118.906891
118.906982
118.907013
118.907135
118.907227
118.907318
118.907440
118.907501
118.907623
118.908356
118.908447
118.908508
118.908630
118.908722
118.908844
118.908966
118.908966
118.909058
118.909210
118.909912
118.909973
118.910065
118.910156
118.910248
118.910278
118.910431
118.910553
118.910645
118.910736
118.911224
118.911346
118.911346
118.911469
118.911530
118.911713
118.911804
118.911896
118.911957
118.912079
118.912567
118.912750
118.912720
118.912842
118.912903
118.913055
118.913116
118.913208
118.913330
118.913422
118.913879
118.914032
118.914124
118.914185
118.914215
118.914368
118.914337
118.914520
118.914490
118.914642
118.915192
118.915222
118.915375
118.915405
118.915527
118.915619
118.915680
118.915710
118.915863
118.915924
118.916412
118.916473
118.916534
118.916656
118.916687
118.916809
118.916840
118.916931
118.917023
118.917114
118.917480
118.917603
118.917603
118.917694
118.917816
118.917877
118.917938
118.918060
118.918091
118.918121
118.905121
118.905273
118.905396
118.905518
118.905548
118.905640
118.905731
118.905914
118.906036
118.906097
118.906891
118.906982
118.907013
118.907166
118.907227
118.907318
118.907440
118.907501
118.907623
118.907684
118.908447
118.908508
118.908630
118.908691
118.908844
118.908966
118.908966
118.909058
118.909210
118.909271
118.910004
118.910095
118.910156
118.910248
118.910278
118.910370
118.910522
118.910645
118.910736
118.910706
118.911316
118.911377
118.911469
118.911530
118.911713
118.911835
118.911896
118.911957
118.912079
118.912109
118.912750
118.912720
118.912842
118.912903
118.913055
118.913116
118.913208
118.913330
118.913422
118.913483
118.914032
118.914124
118.914185
118.914215
118.914398
118.914337
118.914520
118.914490
118.914642
118.914703
118.915222
118.915375
118.915405
118.915527
118.915619
118.915680
118.915710
118.915863
118.915924
118.916046
118.916473
118.916534
118.916656
118.916718
118.916809
118.916809
118.916931
118.917023
118.917114
118.917114
118.917603
118.917603
118.917725
118.917816
118.917877
118.917938
118.918060
118.918091
118.918152
118.918213
118.905273
118.905426
118.905518
118.905548
118.905640
118.905731
118.905914
118.906036
118.906097
118.906158
118.906982
118.907013
118.907166
118.907227
118.907318
118.907440
118.907501
118.907623
118.907684
118.907745
118.908508
118.908569
118.908691
118.908844
118.908966
118.908966
118.909088
118.909210
118.909271
118.909393
118.910095
118.910187
118.910248
118.910309
118.910370
118.910522
118.910645
118.910736
118.910706
118.910767
118.911377
118.911469
118.911530
118.911713
118.911835
118.911926
118.911957
118.912079
118.912140
118.912231
118.912720
118.912842
118.912903
118.913055
118.913116
118.913208
118.913330
118.913422
118.913483
118.913544
118.914124
118.914185
118.914215
118.914398
118.914337
118.914490
118.914520
118.914642
118.914764
118.914764
118.915344
118.915405
118.915527
118.915619
118.915680
118.915710
118.915863
118.915924
118.916046
118.916016
118.916565
118.916656
118.916718
118.916809
118.916809
118.916931
118.917023
118.917084
118.917145
118.917175
118.917633
118.917725
118.917816
118.917877
118.917938
118.918060
118.918091
118.918152
118.918182
118.918304
118.905426
118.905518
118.905548
118.905670
118.905731
118.905914
118.906036
118.906067
118.906158
118.906219
118.907013
118.907196
118.907227
118.907349
118.907440
118.907532
118.907623
118.907684
118.907776
118.907928
118.908569
118.908691
118.908813
118.908966
118.908966
118.909088
118.909241
118.909271
118.909393
118.909363
118.910187
118.910217
118.910309
118.910370
118.910522
118.910675
118.910736
118.910675
118.910767
118.910919
118.911469
118.911530
118.911713
118.911804
118.911926
118.911957
118.912109
118.912140
118.912231
118.912354
118.912842
118.912933
118.913055
118.913147
118.913208
118.913330
118.913422
118.913483
118.913544
118.913605
118.914185
118.914215
118.914398
118.914337
118.914490
118.914520
118.914642
118.914764
118.914764
118.914795
118.915405
118.915527
118.915619
118.915680
118.915710
118.915863
118.915924
118.916046
118.916016
118.916107
118.916656
118.916718
118.916809
118.916809
118.916992
118.917023
118.917084
118.917145
118.917175
118.917145
118.917725
118.917816
118.917877
118.917908
118.918060
118.918091
118.918152
118.918182
118.918274
118.918274
118.905518
118.905548
118.905670
118.905731
118.905914
118.906036
118.906067
118.906158
118.906219
118.906403
118.907196
118.907227
118.907349
118.907440
118.907532
118.907623
118.907684
118.907776
118.907928
118.907928
118.908722
118.908813
118.908966
118.908966
118.909088
118.909241
118.909271
118.909393
118.909363
118.909515
118.910217
118.910309
118.910370
118.910522
118.910675
118.910736
118.910675
118.910767
118.910919
118.910980
118.911560
118.911713
118.911804
118.911926
118.911957
118.912109
118.912140
118.912231
118.912354
118.912506
118.912933
118.913055
118.913147
118.913208
118.913330
118.913422
118.913483
118.913544
118.913605
118.913666
118.914215
118.914368
118.914337
118.914490
118.914520
118.914642
118.914764
118.914764
118.914795
118.914948
118.915527
118.915619
118.915680
118.915710
118.915863
118.915924
118.916046
118.916016
118.916107
118.916168
118.916718
118.916809
118.916840
118.916992
118.917023
118.917084
118.917145
118.917175
118.917145
118.917328
118.917816
118.917877
118.917908
118.918060
118.918121
118.918152
118.918182
118.918274
118.918274
118.918304
118.905548
118.905670
118.905731
118.905914
118.906036
118.906097
118.906158
118.906219
118.906403
118.906494
118.907227
118.907349
118.907471
118.907501
118.907623
118.907684
118.907776
118.907898
118.907928
118.908081
118.908813
118.908966
118.908966
118.909058
118.909210
118.909271
118.909393
118.909363
118.909546
118.909576
118.910309
118.910370
118.910522
118.910675
118.910706
118.910675
118.910767
118.910919
118.910980
118.911041
118.911743
118.911804
118.911926
118.911957
118.912109
118.912140
118.912262
118.912354
118.912506
118.912537
118.913055
118.913147
118.913208
118.913330
118.913452
118.913483
118.913544
118.913605
118.913666
118.913849
118.914368
118.914337
118.914459
118.914520
118.914642
118.914734
118.914764
118.914795
118.914948
118.914948
118.915649
118.915680
118.915710
118.915863
118.915924
118.916046
118.916016
118.916107
118.916168
118.916229
118.916809
118.916840
118.916992
118.917023
118.917114
118.917114
118.917145
118.917145
118.917328
118.917389
118.917877
118.917908
118.918060
118.918121
118.918182
118.918182
118.918274
118.918274
118.918304
118.918427
118.905670
118.905731
118.905914
118.906067
118.906097
118.906158
118.906219
118.906403
118.906494
118.906647
118.907349
118.907471
118.907501
118.907623
118.907684
118.907806
118.907898
118.907928
118.908081
118.908203
118.908966
118.908966
118.909058
118.909210
118.909271
118.909393
118.909363
118.909546
118.909576
118.909760
118.910370
118.910553
118.910675
118.910706
118.910675
118.910767
118.910919
118.910980
118.911041
118.911133
118.911835
118.911926
118.911957
118.912140
118.912140
118.912262
118.912354
118.912506
118.912537
118.912598
118.913147
118.913208
118.913330
118.913452
118.913483
118.913544
118.913605
118.913696
118.913849
118.913910
118.914398
118.914459
118.914520
118.914642
118.914734
118.914764
118.914764
118.914948
118.914948
118.915039
118.915680
118.915741
118.915863
118.915924
118.916046
118.916016
118.916107
118.916168
118.916229
118.916321
118.916840
118.916962
118.917053
118.917114
118.917114
118.917145
118.917145
118.917328
118.917389
118.917419
118.917908
118.918060
118.918121
118.918182
118.918182
118.918274
118.918274
118.918304
118.918427
118.918427
118.905762
118.905914
118.906067
118.906097
118.906158
118.906219
118.906403
118.906494
118.906586
118.906708
118.907471
118.907501
118.907623
118.907684
118.907806
118.907928
118.907928
118.908081
118.908203
118.908295
118.908997
118.909027
118.909210
118.909271
118.909393
118.909363
118.909546
118.909576
118.909760
118.909790
118.910553
118.910675
118.910706
118.910675
118.910767
118.910858
118.910980
118.911041
118.911133
118.911224
118.911926
118.911957
118.912140
118.912140
118.912262
118.912354
118.912506
118.912537
118.912567
118.912598
118.913208
118.913300
118.913452
118.913483
118.913544
118.913666
118.913696
118.913849
118.913910
118.913910
118.914459
118.914520
118.914642
118.914734
118.914764
118.914764
118.914948
118.914948
118.915039
118.915131
118.915741
118.915894
118.915924
118.916046
118.916016
118.916107
118.916168
118.916229
118.916321
118.916351
118.916962
118.917053
118.917114
118.917114
118.917145
118.917145
118.917328
118.917389
118.917419
118.917419
118.918060
118.918091
118.918182
118.918182
118.918274
118.918274
118.918304
118.918427
118.918427
118.918640
118.905914
118.906067
118.906097
118.906189
118.906250
118.906403
118.906494
118.906586
118.906708
118.906830
118.907501
118.907654
118.907684
118.907776
118.907928
118.907928
118.908081
118.908203
118.908295
118.908478
118.909027
118.909241
118.909241
118.909393
118.909393
118.909546
118.909576
118.909760
118.909790
118.909912
118.910675
118.910675
118.910675
118.910767
118.910858
118.910980
118.911041
118.911163
118.911224
118.911285
118.911957
118.912140
118.912079
118.912231
118.912323
118.912506
118.912537
118.912567
118.912598
118.912689
118.913300
118.913422
118.913483
118.913574
118.913666
118.913696
118.913788
118.913910
118.913910
118.914032
118.914520
118.914642
118.914734
118.914764
118.914764
118.914948
118.914948
118.915039
118.915131
118.915192
118.915894
118.915924
118.916046
118.916046
118.916107
118.916168
118.916229
118.916321
118.916351
118.916443
118.917053
118.917145
118.917114
118.917175
118.917145
118.917328
118.917389
118.917419
118.917419
118.917542
118.918091
118.918152
118.918182
118.918274
118.918304
118.918304
118.918427
118.918488
118.918640
118.918762

SCALARS Alpha float 1
LOOKUP_TABLE default
-2.491427
-2.491425
-2.491423
-2.491423
-2.491421
-2.491421
-2.491419
-2.491417
-2.491416
-2.491415
-2.491405
-2.491405
-2.491403
-2.491403
-2.491402
-2.491400
-2.491399
-2.491397
-2.491396
-2.491395
-2.491386
-2.491385
-2.491383
-2.491382
-2.491382
-2.491380
-2.491378
-2.491377
-2.491377
-2.491377
-2.491367
-2.491366
-2.491365
-2.491364
-2.491363
-2.491362
-2.491359
-2.491360
-2.491358
-2.491358
-2.491350
-2.491349
-2.491347
-2.491347
-2.491346
-2.491345
-2.491344
-2.491343
-2.491343
-2.491343
-2.491333
-2.491331
-2.491331
-2.491330
-2.491330
-2.491329
-2.491327
-2.491326
-2.491325
-2.491324
-2.491317
-2.491317
-2.491315
-2.491314
-2.491313
-2.491311
-2.491311
-2.491310
-2.491309
-2.491308
-2.491302
-2.491301
-2.491301
-2.491299
-2.491297
-2.491297
-2.491297
-2.491295
-2.491295
-2.491293
-2.491286
-2.491286
-2.491284
-2.491283
-2.491283
-2.491282
-2.491282
-2.491281
-2.491280
-2.491279
-2.491273
-2.491272
-2.491271
-2.491270
-2.491269
-2.491268
-2.491268
-2.491267
-2.491265
-2.491266
-2.491425
-2.491423
-2.491423
-2.491421
-2.491421
-2.491419
-2.491417
-2.491416
-2.491415
-2.491414
-2.491405
-2.491403
-2.491402
-2.491402
-2.491400
-2.491399
-2.491397
-2.491396
-2.491395
-2.491396
-2.491385
-2.491383
-2.491382
-2.491381
-2.491380
-2.491378
-2.491378
-2.491377
-2.491377
-2.491374
-2.491366
-2.491365
-2.491364
-2.491363
-2.491362
-2.491359
-2.491360
-2.491358
-2.491357
-2.491357
-2.491349
-2.491347
-2.491347
-2.491346
-2.491345
-2.491344
-2.491343
-2.491343
-2.491343
-2.491340
-2.491332
-2.491331
-2.491330
-2.491329
-2.491329
-2.491327
-2.491326
-2.491325
-2.491324
-2.491323
-2.491317
-2.491316
-2.491314
-2.491313
-2.491311
-2.491311
-2.491310
-2.491309
-2.491308
-2.491308
-2.491302
-2.491301
-2.491299
-2.491297
-2.491297
-2.491297
-2.491295
-2.491294
-2.491293
-2.491293
-2.491286
-2.491284
-2.491283
-2.491283
-2.491282
-2.491282
-2.491281
-2.491280
-2.491279
-2.491278
-2.491272
-2.491272
-2.491270
-2.491269
-2.491268
-2.491268
-2.491268
-2.491266
-2.491266
-2.491265
-2.491423
-2.491423
-2.491421
-2.491421
-2.491419
-2.491416
-2.491416
-2.491415
-2.491414
-2.491412
-2.491403
-2.491402
-2.491402
-2.491400
-2.491399
-2.491397
-2.491396
-2.491395
-2.491396
-2.491394
-2.491383
-2.491382
-2.491381
-2.491381
-2.491378
-2.491378
-2.491377
-2.491377
-2.491374
-2.491374
-2.491365
-2.491364
-2.491363
-2.491362
-2.491359
-2.491360
-2.491358
-2.491357
-2.491357
-2.491357
-2.491347
-2.491346
-2.491346
-2.491345
-2.491344
-2.491344
-2.491343
-2.491343
-2.491340
-2.491340
-2.491331
-2.491330
-2.491329
-2.491329
-2.491327
-2.491326
-2.491325
-2.491324
-2.491323
-2.491322
-2.491316
-2.491314
-2.491313
-2.491311
-2.491311
-2.491310
-2.491309
-2.491308
-2.491308
-2.491306
-2.491301
-2.491299
-2.491298
-2.491296
-2.491297
-2.491295
-2.491294
-2.491293
-2.491293
-2.491291
-2.491285
-2.491283
-2.491283
-2.491282
-2.491282
-2.491281
-2.491280
-2.491279
-2.491278
-2.491277
-2.491272
-2.491270
-2.491269
-2.491268
-2.491268
-2.491268
-2.491266
-2.491266
-2.491265
-2.491264
-2.491423
-2.491421
-2.491421
-2.491419
-2.491416
-2.491416
-2.491415
-2.491413
-2.491412
-2.491412
-2.491402
-2.491401
-2.491400
-2.491399
-2.491397
-2.491396
-2.491395
-2.491396
-2.491394
-2.491392
-2.491382
-2.491381
-2.491381
-2.491378
-2.491377
-2.491377
-2.491376
-2.491374
-2.491374
-2.491373
-2.491364
-2.491363
-2.491362
-2.491359
-2.491360
-2.491358
-2.491357
-2.491357
-2.491357
-2.491355
-2.491346
-2.491346
-2.491345
-2.491344
-2.491344
-2.491343
-2.491343
-2.491340
-2.491340
-2.491338
-2.491330
-2.491329
-2.491329
-2.491327
-2.491326
-2.491325
-2.491324
-2.491323
-2.491322
-2.491322
-2.491314
-2.491313
-2.491311
-2.491311
-2.491310
-2.491309
-2.491307
-2.491308
-2.491306
-2.491305
-2.491299
-2.491298
-2.491296
-2.491297
-2.491295
-2.491294
-2.491293
-2.491292
-2.491291
-2.491291
-2.491283
-2.491283
-2.491282
-2.491281
-2.491281
-2.491280
-2.491279
-2.491278
-2.491277
-2.491276
-2.491270
-2.491269
-2.491268
-2.491268
-2.491268
-2.491266
-2.491266
-2.491265
-2.491263
-2.491263
-2.491421
-2.491421
-2.491419
-2.491416
-2.491416
-2.491415
-2.491413
-2.491412
-2.491412
-2.491410
-2.491401
-2.491400
-2.491398
-2.491397
-2.491396
-2.491395
-2.491396
-2.491394
-2.491392
-2.491390
-2.491381
-2.491381
-2.491379
-2.491377
-2.491377
-2.491376
-2.491374
-2.491374
-2.491373
-2.491371
-2.491363
-2.491362
-2.491359
-2.491360
-2.491358
-2.491357
-2.491357
-2.491357
-2.491355
-2.491353
-2.491346
-2.491345
-2.491344
-2.491344
-2.491343
-2.491343
-2.491340
-2.491340
-2.491338
-2.491337
-2.491329
-2.491329
-2.491327
-2.491326
-2.491326
-2.491324
-2.491323
-2.491322
-2.491322
-2.491320
-2.491313
-2.491312
-2.491311
-2.491310
-2.491309
-2.491307
-2.491308
-2.491306
-2.491305
-2.491304
-2.491298
-2.491296
-2.491297
-2.491295
-2.491294
-2.491293
-2.491292
-2.491291
-2.491291
-2.491290
-2.491283
-2.491282
-2.491281
-2.491281
-2.491280
-2.491279
-2.491278
-2.491277
-2.491276
-2.491276
-2.491269
-2.491268
-2.491268
-2.491268
-2.491266
-2.491266
-2.491265
-2.491263
-2.491263
-2.491263
-2.491421
-2.491419
-2.491416
-2.491416
-2.491415
-2.491413
-2.491412
-2.491412
-2.491410
-2.491409
-2.491400
-2.491398
-2.491397
-2.491396
-2.491395
-2.491395
-2.491394
-2.491392
-2.491390
-2.491390
-2.491380
-2.491379
-2.491377
-2.491377
-2.491376
-2.491374
-2.491374
-2.491373
-2.491371
-2.491370
-2.491362
-2.491359
-2.491360
-2.491358
-2.491357
-2.491357
-2.491357
-2.491355
-2.491354
-2.491352
-2.491345
-2.491344
-2.491344
-2.491343
-2.491343
-2.491340
-2.491340
-2.491338
-2.491337
-2.491336
-2.491329
-2.491327
-2.491326
-2.491326
-2.491324
-2.491323
-2.491322
-2.491322
-2.491320
-2.491319
-2.491312
-2.491311
-2.491310
-2.491309
-2.491307
-2.491308
-2.491306
-2.491305
-2.491304
-2.491304
-2.491296
-2.491297
-2.491295
-2.491294
-2.491293
-2.491292
-2.491292
-2.491291
-2.491290
-2.491290
-2.491282
-2.491281
-2.491281
-2.491280
-2.491279
-2.491278
-2.491277
-2.491276
-2.491276
-2.491275
-2.491269
-2.491268
-2.491268
-2.491266
-2.491266
-2.491265
-2.491263
-2.491263
-2.491263
-2.491262
-2.491419
-2.491416
-2.491416
-2.491415
-2.491413
-2.491412
-2.491412
-2.491410
-2.491409
-2.491407
-2.491399
-2.491398
-2.491397
-2.491395
-2.491395
-2.491394
-2.491392
-2.491391
-2.491390
-2.491388
-2.491378
-2.491378
-2.491377
-2.491376
-2.491374
-2.491374
-2.491373
-2.491371
-2.491370
-2.491368
-2.491359
-2.491360
-2.491358
-2.491358
-2.491357
-2.491357
-2.491355
-2.491354
-2.491352
-2.491352
-2.491343
-2.491344
-2.491343
-2.491343
-2.491340
-2.491340
-2.491338
-2.491337
-2.491336
-2.491335
-2.491327
-2.491326
-2.491326
-2.491324
-2.491323
-2.491322
-2.491322
-2.491320
-2.491319
-2.491318
-2.491311
-2.491310
-2.491309
-2.491308
-2.491308
-2.491306
-2.491305
-2.491304
-2.491304
-2.491302
-2.491297
-2.491295
-2.491294
-2.491293
-2.491292
-2.491292
-2.491290
-2.491290
-2.491290
-2.491289
-2.491281
-2.491281
-2.491280
-2.491279
-2.491278
-2.491278
-2.491276
-2.491277
-2.491275
-2.491274
-2.491268
-2.491268
-2.491266
-2.491266
-2.491265
-2.491263
-2.491263
-2.491262
-2.491262
-2.491261
-2.491416
-2.491416
-2.491415
-2.491414
-2.491412
-2.491412
-2.491410
-2.491409
-2.491407
-2.491406
-2.491398
-2.491397
-2.491395
-2.491395
-2.491394
-2.491392
-2.491391
-2.491390
-2.491388
-2.491386
-2.491378
-2.491377
-2.491376
-2.491374
-2.491374
-2.491373
-2.491371
-2.491370
-2.491368
-2.491368
-2.491360
-2.491358
-2.491358
-2.491357
-2.491356
-2.491355
-2.491354
-2.491352
-2.491352
-2.491351
-2.491343
-2.491343
-2.491343
-2.491341
-2.491340
-2.491338
-2.491337
-2.491336
-2.491335
-2.491333
-2.491326
-2.491326
-2.491324
-2.491323
-2.491323
-2.491322
-2.491320
-2.491319
-2.491318
-2.491318
-2.491310
-2.491309
-2.491308
-2.491308
-2.491306
-2.491305
-2.491305
-2.491304
-2.491302
-2.491302
-2.491295
-2.491294
-2.491293
-2.491292
-2.491292
-2.491290
-2.491290
-2.491290
-2.491289
-2.491288
-2.491281
-2.491280
-2.491279
-2.491278
-2.491278
-2.491276
-2.491277
-2.491275
-2.491274
-2.491273
-2.491268
-2.491266
-2.491266
-2.491265
-2.491264
-2.491263
-2.491262
-2.491262
-2.491261
-2.491260
-2.491416
-2.491415
-2.491414
-2.491412
-2.491412
-2.491410
-2.491409
-2.491407
-2.491406
-2.491405
-2.491397
-2.491395
-2.491395
-2.491393
-2.491392
-2.491391
-2.491390
-2.491388
-2.491386
-2.491385
-2.491377
-2.491376
-2.491374
-2.491374
-2.491373
-2.491371
-2.491370
-2.491369
-2.491368
-2.491367
-2.491358
-2.491358
-2.491357
-2.491356
-2.491355
-2.491354
-2.491352
-2.491352
-2.491351
-2.491349
-2.491343
-2.491343
-2.491341
-2.491340
-2.491338
-2.491337
-2.491336
-2.491335
-2.491333
-2.491332
-2.491326
-2.491324
-2.491323
-2.491323
-2.491322
-2.491320
-2.491319
-2.491318
-2.491318
-2.491317
-2.491309
-2.491308
-2.491308
-2.491306
-2.491305
-2.491305
-2.491304
-2.491302
-2.491302
-2.491302
-2.491294
-2.491293
-2.491292
-2.491291
-2.491290
-2.491290
-2.491290
-2.491289
-2.491288
-2.491286
-2.491280
-2.491279
-2.491278
-2.491278
-2.491276
-2.491277
-2.491275
-2.491274
-2.491273