# vtk DataFile Version 3.0
PINN prediction t=29793.103515625
ASCII
DATASET UNSTRUCTURED_GRID
POINTS 1000 float
0.000000 0.000000 0.000000
0.000000 0.000000 0.044444
0.000000 0.000000 0.088889
0.000000 0.000000 0.133333
0.000000 0.000000 0.177778
0.000000 0.000000 0.222222
0.000000 0.000000 0.266667
0.000000 0.000000 0.311111
0.000000 0.000000 0.355556
0.000000 0.000000 0.400000
0.000000 0.088889 0.000000
0.000000 0.088889 0.044444
0.000000 0.088889 0.088889
0.000000 0.088889 0.133333
0.000000 0.088889 0.177778
0.000000 0.088889 0.222222
0.000000 0.088889 0.266667
0.000000 0.088889 0.311111
0.000000 0.088889 0.355556
0.000000 0.088889 0.400000
0.000000 0.177778 0.000000
0.000000 0.177778 0.044444
0.000000 0.177778 0.088889
0.000000 0.177778 0.133333
0.000000 0.177778 0.177778
0.000000 0.177778 0.222222
0.000000 0.177778 0.266667
0.000000 0.177778 0.311111
0.000000 0.177778 0.355556
0.000000 0.177778 0.400000
0.000000 0.266667 0.000000
0.000000 0.266667 0.044444
0.000000 0.266667 0.088889
0.000000 0.266667 0.133333
0.000000 0.266667 0.177778
0.000000 0.266667 0.222222
0.000000 0.266667 0.266667
0.000000 0.266667 0.311111
0.000000 0.266667 0.355556
0.000000 0.266667 0.400000
0.000000 0.355556 0.000000
0.000000 0.355556 0.044444
0.000000 0.355556 0.088889
0.000000 0.355556 0.133333
0.000000 0.355556 0.177778
0.000000 0.355556 0.222222
0.000000 0.355556 0.266667
0.000000 0.355556 0.311111
0.000000 0.355556 0.355556
0.000000 0.355556 0.400000
0.000000 0.444444 0.000000
0.000000 0.444444 0.044444
0.000000 0.444444 0.088889
0.000000 0.444444 0.133333
0.000000 0.444444 0.177778
0.000000 0.444444 0.222222
0.000000 0.444444 0.266667
0.000000 0.444444 0.311111
0.000000 0.444444 0.355556
0.000000 0.444444 0.400000
0.000000 0.533333 0.000000
0.000000 0.533333 0.044444
0.000000 0.533333 0.088889
0.000000 0.533333 0.133333
0.000000 0.533333 0.177778
0.000000 0.533333 0.222222
0.000000 0.533333 0.266667
0.000000 0.533333 0.311111
0.000000 0.533333 0.355556
0.000000 0.533333 0.400000
0.000000 0.622222 0.000000
0.000000 0.622222 0.044444
0.000000 0.622222 0.088889
0.000000 0.622222 0.133333
0.000000 0.622222 0.177778
0.000000 0.622222 0.222222
0.000000 0.622222 0.266667
0.000000 0.622222 0.311111
0.000000 0.622222 0.355556
0.000000 0.622222 0.400000
0.000000 0.711111 0.000000
0.000000 0.711111 0.044444
0.000000 0.711111 0.088889
0.000000 0.711111 0.133333
0.000000 0.711111 0.177778
0.000000 0.711111 0.222222
0.000000 0.711111 0.266667
0.000000 0.711111 0.311111
0.000000 0.711111 0.355556
0.000000 0.711111 0.400000
0.000000 0.800000 0.000000
0.000000 0.800000 0.044444
0.000000 0.800000 0.088889
0.000000 0.800000 0.133333
0.000000 0.800000 0.177778
0.000000 0.800000 0.222222
0.000000 0.800000 0.266667
0.000000 0.800000 0.311111
0.000000 0.800000 0.355556
0.000000 0.800000 0.400000
0.044444 0.000000 0.000000
0.044444 0.000000 0.044444
0.044444 0.000000 0.088889
0.044444 0.000000 0.133333
0.044444 0.000000 0.177778
0.044444 0.000000 0.222222
0.044444 0.000000 0.266667
0.044444 0.000000 0.311111
0.044444 0.000000 0.355556
0.044444 0.000000 0.400000
0.044444 0.088889 0.000000
0.044444 0.088889 0.044444
0.044444 0.088889 0.088889
0.044444 0.088889 0.133333
0.044444 0.088889 0.177778
0.044444 0.088889 0.222222
0.044444 0.088889 0.266667
0.044444 0.088889 0.311111
0.044444 0.088889 0.355556
0.044444 0.088889 0.400000
0.044444 0.177778 0.000000
0.044444 0.177778 0.044444
0.044444 0.177778 0.088889
0.044444 0.177778 0.133333
0.044444 0.177778 0.177778
0.044444 0.177778 0.222222
0.044444 0.177778 0.266667
0.044444 0.177778 0.311111
0.044444 0.177778 0.355556
0.044444 0.177778 0.400000
0.044444 0.266667 0.000000
0.044444 0.266667 0.044444
0.044444 0.266667 0.088889
0.044444 0.266667 0.133333
0.044444 0.266667 0.177778
0.044444 0.266667 0.222222
0.044444 0.266667 0.266667
0.044444 0.266667 0.311111
0.044444 0.266667 0.355556
0.044444 0.266667 0.400000
0.044444 0.355556 0.000000
0.044444 0.355556 0.044444
0.044444 0.355556 0.088889
0.044444 0.355556 0.133333
0.044444 0.355556 0.177778
0.044444 0.355556 0.222222
0.044444 0.355556 0.266667
0.044444 0.355556 0.311111
0.044444 0.355556 0.355556
0.044444 0.355556 0.400000
0.044444 0.444444 0.000000
0.044444 0.444444 0.044444
0.044444 0.444444 0.088889
0.044444 0.444444 0.133333
0.044444 0.444444 0.177778
0.044444 0.444444 0.222222
0.044444 0.444444 0.266667
0.044444 0.444444 0.311111
0.044444 0.444444 0.355556
0.044444 0.444444 0.400000
0.044444 0.533333 0.000000
0.044444 0.533333 0.044444
0.044444 0.533333 0.088889
0.044444 0.533333 0.133333
0.044444 0.533333 0.177778
0.044444 0.533333 0.222222
0.044444 0.533333 0.266667
0.044444 0.533333 0.311111
0.044444 0.533333 0.355556
0.044444 0.533333 0.400000
0.044444 0.622222 0.000000
0.044444 0.622222 0.044444
0.044444 0.622222 0.088889
0.044444 0.622222 0.133333
0.044444 0.622222 0.177778
0.044444 0.622222 0.222222
0.044444 0.622222 0.266667
0.044444 0.622222 0.311111
0.044444 0.622222 0.355556
0.044444 0.622222 0.400000
0.044444 0.711111 0.000000
0.044444 0.711111 0.044444
0.044444 0.711111 0.088889
0.044444 0.711111 0.133333
0.044444 0.711111 0.177778
0.044444 0.711111 0.222222
0.044444 0.711111 0.266667
0.044444 0.711111 0.311111
0.044444 0.711111 0.355556
0.044444 0.711111 0.400000
0.044444 0.800000 0.000000
0.044444 0.800000 0.044444
0.044444 0.800000 0.088889
0.044444 0.800000 0.133333
0.044444 0.800000 0.177778
0.044444 0.800000 0.222222
0.044444 0.800000 0.266667
0.044444 0.800000 0.311111
0.044444 0.800000 0.355556
0.044444 0.800000 0.400000
0.088889 0.000000 0.000000
0.088889 0.000000 0.044444
0.088889 0.000000 0.088889
0.088889 0.000000 0.133333
0.088889 0.000000 0.177778
0.088889 0.000000 0.222222
0.088889 0.000000 0.266667
0.088889 0.000000 0.311111
0.088889 0.000000 0.355556
0.088889 0.000000 0.400000
0.088889 0.088889 0.000000
0.088889 0.088889 0.044444
0.088889 0.088889 0.088889
0.088889 0.088889 0.133333
0.088889 0.088889 0.177778
0.088889 0.088889 0.222222
0.088889 0.088889 0.266667
0.088889 0.088889 0.311111
0.088889 0.088889 0.355556
0.088889 0.088889 0.400000
0.088889 0.177778 0.000000
0.088889 0.177778 0.044444
0.088889 0.177778 0.088889
0.088889 0.177778 0.133333
0.088889 0.177778 0.177778
0.088889 0.177778 0.222222
0.088889 0.177778 0.266667
0.088889 0.177778 0.311111
0.088889 0.177778 0.355556
0.088889 0.177778 0.400000
0.088889 0.266667 0.000000
0.088889 0.266667 0.044444
0.088889 0.266667 0.088889
0.088889 0.266667 0.133333
0.088889 0.266667 0.177778
0.088889 0.266667 0.222222
0.088889 0.266667 0.266667
0.088889 0.266667 0.311111
0.088889 0.266667 0.355556
0.088889 0.266667 0.400000
0.088889 0.355556 0.000000
0.088889 0.355556 0.044444
0.088889 0.355556 0.088889
0.088889 0.355556 0.133333
0.088889 0.355556 0.177778
0.088889 0.355556 0.222222
0.088889 0.355556 0.266667
0.088889 0.355556 0.311111
0.088889 0.355556 0.355556
0.088889 0.355556 0.400000
0.088889 0.444444 0.000000
0.088889 0.444444 0.044444
0.088889 0.444444 0.088889
0.088889 0.444444 0.133333
0.088889 0.444444 0.177778
0.088889 0.444444 0.222222
0.088889 0.444444 0.266667
0.088889 0.444444 0.311111
0.088889 0.444444 0.355556
0.088889 0.444444 0.400000
0.088889 0.533333 0.000000
0.088889 0.533333 0.044444
0.088889 0.533333 0.088889
0.088889 0.533333 0.133333
0.088889 0.533333 0.177778
0.088889 0.533333 0.222222
0.088889 0.533333 0.266667
0.088889 0.533333 0.311111
0.088889 0.533333 0.355556
0.088889 0.533333 0.400000
0.088889 0.622222 0.000000
0.088889 0.622222 0.044444
0.088889 0.622222 0.088889
0.088889 0.622222 0.133333
0.088889 0.622222 0.177778
0.088889 0.622222 0.222222
0.088889 0.622222 0.266667
0.088889 0.622222 0.311111
0.088889 0.622222 0.355556
0.088889 0.622222 0.400000
0.088889 0.711111 0.000000
0.088889 0.711111 0.044444
0.088889 0.711111 0.088889
0.088889 0.711111 0.133333
0.088889 0.711111 0.177778
0.088889 0.711111 0.222222
0.088889 0.711111 0.266667
0.088889 0.711111 0.311111
0.088889 0.711111 0.355556
0.088889 0.711111 0.400000
0.088889 0.800000 0.000000
0.088889 0.800000 0.044444
0.088889 0.800000 0.088889
0.088889 0.800000 0.133333
0.088889 0.800000 0.177778
0.088889 0.800000 0.222222
0.088889 0.800000 0.266667
0.088889 0.800000 0.311111
0.088889 0.800000 0.355556
0.088889 0.800000 0.400000
0.133333 0.000000 0.000000
0.133333 0.000000 0.044444
0.133333 0.000000 0.088889
0.133333 0.000000 0.133333
0.133333 0.000000 0.177778
0.133333 0.000000 0.222222
0.133333 0.000000 0.266667
0.133333 0.000000 0.311111
0.133333 0.000000 0.355556
0.133333 0.000000 0.400000
0.133333 0.088889 0.000000
0.133333 0.088889 0.044444
0.133333 0.088889 0.088889
0.133333 0.088889 0.133333
0.133333 0.088889 0.177778
0.133333 0.088889 0.222222
0.133333 0.088889 0.266667
0.133333 0.088889 0.311111
0.133333 0.088889 0.355556
0.133333 0.088889 0.400000
0.133333 0.177778 0.000000
0.133333 0.177778 0.044444
0.133333 0.177778 0.088889
0.133333 0.177778 0.133333
0.133333 0.177778 0.177778
0.133333 0.177778 0.222222
0.133333 0.177778 0.266667
0.133333 0.177778 0.311111
0.133333 0.177778 0.355556
0.133333 0.177778 0.400000
0.133333 0.266667 0.000000
0.133333 0.266667 0.044444
0.133333 0.266667 0.088889
0.133333 0.266667 0.133333
0.133333 0.266667 0.177778
0.133333 0.266667 0.222222
0.133333 0.266667 0.266667
0.133333 0.266667 0.311111
0.133333 0.266667 0.355556
0.133333 0.266667 0.400000
0.133333 0.355556 0.000000
0.133333 0.355556 0.044444
0.133333 0.355556 0.088889
0.133333 0.355556 0.133333
0.133333 0.355556 0.177778
0.133333 0.355556 0.222222
0.133333 0.355556 0.266667
0.133333 0.355556 0.311111
0.133333 0.355556 0.355556
0.133333 0.355556 0.400000
0.133333 0.444444 0.000000
0.133333 0.444444 0.044444
0.133333 0.444444 0.088889
0.133333 0.444444 0.133333
0.133333 0.444444 0.177778
0.133333 0.444444 0.222222
0.133333 0.444444 0.266667
0.133333 0.444444 0.311111
0.133333 0.444444 0.355556
0.133333 0.444444 0.400000
0.133333 0.533333 0.000000
0.133333 0.533333 0.044444
0.133333 0.533333 0.088889
0.133333 0.533333 0.133333
0.133333 0.533333 0.177778
0.133333 0.533333 0.222222
[...]
POINT_DATA 1000
SCALARS Temperature float 1
LOOKUP_TABLE default
118.476654
118.478027
118.479340
118.480743
118.482086
118.483429
118.484650
118.486023
118.487366
118.488617
118.498169
118.499481
118.500824
118.502045
118.503387
118.504547
118.505890
118.507111
118.508484
118.509735
118.518829
118.520020
118.521332
118.522430
118.523712
118.524872
118.526123
118.527344
118.528473
118.529755
118.538422
118.539581
118.540802
118.541962
118.543121
118.544189
118.545258
118.546448
118.547607
118.548798
118.557037
118.558258
118.559387
118.560394
118.561554
118.562592
118.563751
118.564819
118.565918
118.567047
118.574951
118.575928
118.576996
118.578033
118.579132
118.580170
118.581207
118.582306
118.583313
118.584320
118.591888
118.592926
118.593933
118.594971
118.596008
118.597015
118.597931
118.598969
118.599945
118.600861
118.608185
118.609161
118.610046
118.611023
118.612000
118.612946
118.613831
118.614838
118.615753
118.616730
118.623657
118.624542
118.625397
118.626343
118.627289
118.628143
118.629089
118.630035
118.630951
118.631805
118.638428
118.639282
118.640106
118.640961
118.641876
118.642731
118.643616
118.644409
118.645294
118.646149
118.478027
118.479370
118.480743
118.482147
118.483429
118.484680
118.486023
118.487335
118.488617
118.489929
118.499542
118.500824
118.502075
118.503387
118.504578
118.505890
118.507172
118.508514
118.509705
118.510895
118.519989
118.521362
118.522430
118.523712
118.524902
118.526093
118.527344
118.528534
118.529755
118.530884
118.539612
118.540802
118.542023
118.543091
118.544220
118.545319
118.546448
118.547638
118.548828
118.549835
118.558258
118.559387
118.560425
118.561615
118.562653
118.563812
118.564819
118.565918
118.567078
118.568085
118.575928
118.576996
118.578033
118.579132
118.580170
118.581238
118.582336
118.583282
118.584320
118.585419
118.592957
118.593964
118.594940
118.596039
118.597015
118.597931
118.598938
118.599945
118.600891
118.601868
118.609222
118.610077
118.611053
118.611969
118.612885
118.613861
118.614899
118.615814
118.616730
118.617676
118.624542
118.625397
118.626343
118.627289
118.628143
118.629089
118.630035
118.630951
118.631775
118.632751
118.639282
118.640106
118.640961
118.641846
118.642731
118.643585
118.644440
118.645294
118.646149
118.647064
118.479462
118.480743
118.482117
118.483429
118.484650
118.486053
118.487335
118.488678
118.489899
118.491333
118.500885
118.502075
118.503418
118.504608
118.505890
118.507172
118.508484
118.509735
118.510925
118.512238
118.521393
118.522430
118.523712
118.524902
118.526093
118.527405
118.528564
118.529755
118.530914
118.532074
118.540833
118.541992
118.543121
118.544250
118.545319
118.546539
118.547638
118.548798
118.549896
118.551117
118.559387
118.560516
118.561615
118.562622
118.563843
118.564850
118.565948
118.567108
118.568115
118.569244
118.577057
118.578064
118.579071
118.580170
118.581207
118.582336
118.583313
118.584320
118.585449
118.586456
118.593964
118.594971
118.596039
118.597076
118.597992
118.598938
118.599945
118.600952
118.601837
118.602936
118.610077
118.611053
118.612000
118.612885
118.613861
118.614868
118.615814
118.616760
118.617676
118.618622
118.625397
118.626343
118.627258
118.628143
118.629120
118.630096
118.630951
118.631805
118.632690
118.633636
118.640076
118.640991
118.641876
118.642761
118.643616
118.644440
118.645294
118.646118
118.647064
118.647888
118.480743
118.482086
118.483490
118.484711
118.486053
118.487335
118.488678
118.489960
118.491333
118.492584
118.502106
118.503418
118.504608
118.505951
118.507172
118.508545
118.509735
118.510895
118.512299
118.513458
118.522430
118.523804
118.524933
118.526093
118.527405
118.528564
118.529755
118.530884
118.532135
118.533295
118.541962
118.543152
118.544281
118.545319
118.546509
118.547638
118.548798
118.549927
118.551147
118.552155
118.560516
118.561615
118.562653
118.563812
118.564850
118.565979
118.567108
118.568146
118.569336
118.570190
118.578033
118.579132
118.580170
118.581238
118.582336
118.583313
118.584351
118.585449
118.586456
118.587341
118.594971
118.596008
118.597076
118.597992
118.598907
118.600006
118.600922
118.601868
118.602936
118.603790
118.611084
118.612061
118.612885
118.613892
118.614868
118.615845
118.616791
118.617645
118.618652
118.619598
118.626343
118.627289
118.628082
118.629120
118.630127
118.630951
118.631805
118.632690
118.633636
118.634583
118.640961
118.641907
118.642731
118.643616
118.644440
118.645264
118.646088
118.647064
118.647888
118.648712
118.482117
118.483521
118.484711
118.486053
118.487366
118.488678
118.489960
118.491364
118.492584
118.493927
118.503418
118.504608
118.505890
118.507141
118.508575
118.509735
118.510895
118.512299
118.513458
118.514648
118.523773
118.524933
118.526154
118.527435
118.528534
118.529755
118.530884
118.532074
118.533356
118.534424
118.543182
118.544220
118.545380
118.546509
118.547638
118.548828
118.549927
118.551147
118.552185
118.553345
118.561615
118.562683
118.563782
118.564880
118.566010
118.567108
118.568085
118.569336
118.570221
118.571381
118.579163
118.580170
118.581238
118.582367
118.583344
118.584351
118.585480
118.586456
118.587402
118.588531
118.596008
118.597107
118.598053
118.598969
118.600067
118.600922
118.601898
118.602936
118.603821
118.604889
118.612061
118.612946
118.613922
118.614899
118.615845
118.616760
118.617645
118.618652
118.619598
118.620514
118.627289
118.628143
118.629120
118.630127
118.630951
118.631805
118.632721
118.633636
118.634552
118.635345
118.641907
118.642731
118.643646
118.644531
118.645294
118.646149
118.647064
118.647919
118.648743
118.649475
118.483490
118.484741
118.486115
118.487396
118.488647
118.489990
118.491394
118.492615
118.493896
118.495209
118.504669
118.505920
118.507172
118.508514
118.509766
118.511017
118.512299
118.513458
118.514648
118.515900
118.524933
118.526123
118.527435
118.528564
118.529755
118.530853
118.532104
118.533325
118.534424
118.535706
118.544220
118.545380
118.546539
118.547668
118.548859
118.549957
118.551178
118.552277
118.553314
118.554474
118.562714
118.563812
118.564880
118.565979
118.567078
118.568146
118.569244
118.570251
118.571381
118.572479
118.580200
118.581238
118.582367
118.583344
118.584320
118.585480
118.586456
118.587433
118.588562
118.589600
118.597046
118.598022
118.598969
118.600037
118.600922
118.601868
118.602966
118.603790
118.604950
118.605927
118.612946
118.613922
118.614899
118.615784
118.616730
118.617676
118.618652
118.619598
118.620514
118.621521
118.628174
118.629150
118.630096
118.630920
118.631805
118.632721
118.633667
118.634552
118.635376
118.636322
118.642731
118.643677
118.644501
118.645294
118.646149
118.647064
118.647919
118.648743
118.649475
118.650482
118.484772
118.486115
118.487457
118.488647
118.489990
118.491364
118.492645
118.493958
118.495178
118.496490
118.505951
118.507202
118.508514
118.509735
118.511017
118.512268
118.513458
118.514709
118.515900
118.517181
118.526154
118.527435
118.528564
118.529755
118.530975
118.532135
118.533356
118.534454
118.535706
118.536804
118.545380
118.546539
118.547699
118.548859
118.549957
118.551178
118.552216
118.553345
118.554474
118.555664
118.563812
118.564880
118.565979
118.567108
118.568115
118.569305
118.570251
118.571350
118.572449
118.573456
118.581238
118.582367
118.583344
118.584381
118.585541
118.586456
118.587433
118.588593
118.589600
118.590546
118.598022
118.599030
118.600006
118.600983
118.601898
118.602997
118.603851
118.604950
118.605927
118.606903
118.613922
118.614960
118.615875
118.616791
118.617676
118.618683
118.619568
118.620575
118.621429
118.622406
118.629150
118.630096
118.630951
118.631805
118.632721
118.633636
118.634583
118.635376
118.636353
118.637146
118.643707
118.644501
118.645355
118.646149
118.647064
118.647919
118.648712
118.649475
118.650513
118.651337
118.486176
118.487396
118.488708
118.490021
118.491394
118.492706
118.493988
118.495209
118.496490
118.497803
118.507202
118.508575
118.509735
118.511017
118.512299
118.513458
118.514679
118.515900
118.517181
118.518402
118.527435
118.528625
118.529816
118.530975
118.532074
118.533386
118.534485
118.535706
118.536835
118.537994
118.546600
118.547699
118.548889
118.550018
118.551178
118.552185
118.553345
118.554504
118.555695
118.556641
118.564941
118.566010
118.567078
118.568115
118.569366
118.570282
118.571350
118.572449
118.573456
118.574585
118.582367
118.583374
118.584381
118.585480
118.586426
118.587463
118.588562
118.589600
118.590576
118.591675
118.599030
118.600037
118.600983
118.601959
118.602966
118.603851
118.604950
118.605927
118.606903
118.607880
118.614960
118.615845
118.616791
118.617645
118.618713
118.619598
118.620605
118.621429
118.622406
118.623383
118.630157
118.630920
118.631805
118.632751
118.633667
118.634613
118.635437
118.636353
118.637207
118.638031
118.644501
118.645325
118.646179
118.647095
118.647980
118.648682
118.649475
118.650482
118.651337
118.652130
118.487457
118.488739
118.489990
118.491455
118.492737
118.493988
118.495239
118.496490
118.497833
118.499084
118.508514
118.509766
118.511047
118.512299
118.513489
118.514740
118.515900
118.517242
118.518463
118.519684
118.528625
118.529816
118.530975
118.532074
118.533417
118.534485
118.535736
118.536835
118.537994
118.539246
118.547760
118.548950
118.550018
118.551208
118.552216
118.553314
118.554565
118.555664
118.556732
118.557892
118.566010
118.567108
118.568146
118.569305
118.570282
118.571289
118.572479
118.573486
118.574585
118.575562
118.583405
118.584381
118.585480
118.586487
118.587494
118.588593
118.589600
118.590607
118.591675
118.592621
118.600006
118.600983
118.601959
118.602997
118.603882
118.604980
118.605957
118.606903
118.607880
118.608856
118.615875
118.616821
118.617676
118.618744
118.619568
118.620667
118.621460
118.622375
118.623413
118.624237
118.630951
118.631836
118.632751
118.633667
118.634613
118.635437
118.636322
118.637177
118.638062
118.639038
118.645325
118.646210
118.647125
118.647980
118.648712
118.649506
118.650452
118.651337
118.652161
118.652924
118.488739
118.489990
118.491486
118.492737
118.493988
118.495270
118.496552
118.497772
118.499084
118.500427
118.509766
118.511139
118.512268
118.513519
118.514771
118.515930
118.517242
118.518463
118.519684
118.520874
118.529785
118.531006
118.532135
118.533417
118.534485
118.535736
118.536865
118.537994
118.539276
118.540436
118.548920
118.550079
118.551208
118.552307
118.553314
118.554565
118.555695
118.556732
118.557953
118.559021
118.567108
118.568146
118.569305
118.570251
118.571320
118.572479
118.573517
118.574615
118.575592
118.576660
118.584381
118.585510
118.586456
118.587494
118.588562
118.589630
118.590607
118.591705
118.592621
118.593689
118.601044
118.601990
118.602997
118.603912
118.605011
118.605927
118.606903
118.607849
118.608826
118.609772
118.616791
118.617737
118.618713
118.619568
118.620605
118.621460
118.622375
118.623383
118.624176
118.625092
118.631836
118.632751
118.633698
118.634613
118.635437
118.636383
118.637177
118.638092
118.639038
118.639801
118.646210
118.647125
118.647980
118.648743
118.649536
118.650452
118.651337
118.652191
118.652985
118.653839

SCALARS Alpha float 1
LOOKUP_TABLE default
-2.496662
-2.496646
-2.496630
-2.496614
-2.496598
-2.496582
-2.496565
-2.496550
-2.496533
-2.496517
-2.496400
-2.496383
-2.496368
-2.496351
-2.496336
-2.496322
-2.496306
-2.496292
-2.496275
-2.496259
-2.496148
-2.496134
-2.496118
-2.496104
-2.496089
-2.496074
-2.496060
-2.496044
-2.496030
-2.496016
-2.495908
-2.495895
-2.495878
-2.495866
-2.495852
-2.495838
-2.495822
-2.495809
-2.495795
-2.495782
-2.495679
-2.495666
-2.495652
-2.495640
-2.495625
-2.495612
-2.495598
-2.495585
-2.495572
-2.495559
-2.495461
-2.495449
-2.495435
-2.495423
-2.495409
-2.495398
-2.495385
-2.495373
-2.495360
-2.495347
-2.495254
-2.495243
-2.495229
-2.495217
-2.495204
-2.495192
-2.495180
-2.495170
-2.495157
-2.495144
-2.495056
-2.495044
-2.495032
-2.495020
-2.495009
-2.494998
-2.494985
-2.494973
-2.494964
-2.494951
-2.494865
-2.494855
-2.494845
-2.494833
-2.494822
-2.494811
-2.494799
-2.494789
-2.494777
-2.494766
-2.494688
-2.494677
-2.494665
-2.494653
-2.494644
-2.494633
-2.494622
-2.494612
-2.494601
-2.494591
-2.496646
-2.496630
-2.496613
-2.496597
-2.496581
-2.496565
-2.496550
-2.496533
-2.496517
-2.496500
-2.496383
-2.496367
-2.496351
-2.496336
-2.496322
-2.496305
-2.496292
-2.496276
-2.496259
-2.496244
-2.496133
-2.496118
-2.496104
-2.496089
-2.496073
-2.496059
-2.496044
-2.496029
-2.496015
-2.496001
-2.495895
-2.495878
-2.495865
-2.495852
-2.495838
-2.495823
-2.495809
-2.495795
-2.495782
-2.495769
-2.495666
-2.495653
-2.495640
-2.495625
-2.495612
-2.495599
-2.495585
-2.495573
-2.495558
-2.495545
-2.495449
-2.495435
-2.495423
-2.495410
-2.495398
-2.495385
-2.495372
-2.495359
-2.495347
-2.495334
-2.495242
-2.495228
-2.495217
-2.495204
-2.495193
-2.495180
-2.495170
-2.495157
-2.495144
-2.495131
-2.495044
-2.495031
-2.495020
-2.495009
-2.494998
-2.494985
-2.494973
-2.494963
-2.494951
-2.494940
-2.494856
-2.494844
-2.494833
-2.494822
-2.494811
-2.494799
-2.494789
-2.494777
-2.494766
-2.494755
-2.494676
-2.494665
-2.494654
-2.494644
-2.494633
-2.494622
-2.494612
-2.494601
-2.494591
-2.494579
-2.496629
-2.496613
-2.496597
-2.496581
-2.496564
-2.496549
-2.496533
-2.496516
-2.496500
-2.496485
-2.496367
-2.496351
-2.496336
-2.496322
-2.496305
-2.496292
-2.496276
-2.496260
-2.496244
-2.496229
-2.496118
-2.496104
-2.496089
-2.496073
-2.496059
-2.496043
-2.496029
-2.496015
-2.496001
-2.495986
-2.495879
-2.495865
-2.495851
-2.495837
-2.495823
-2.495809
-2.495795
-2.495782
-2.495769
-2.495754
-2.495653
-2.495639
-2.495626
-2.495612
-2.495597
-2.495584
-2.495573
-2.495558
-2.495545
-2.495532
-2.495436
-2.495423
-2.495409
-2.495398
-2.495385
-2.495373
-2.495359
-2.495347
-2.495333
-2.495321
-2.495228
-2.495217
-2.495204
-2.495192
-2.495179
-2.495168
-2.495157
-2.495143
-2.495131
-2.495120
-2.495032
-2.495021
-2.495008
-2.494997
-2.494985
-2.494973
-2.494963
-2.494951
-2.494941
-2.494928
-2.494844
-2.494833
-2.494821
-2.494811
-2.494799
-2.494789
-2.494778
-2.494766
-2.494755
-2.494744
-2.494665
-2.494654
-2.494644
-2.494633
-2.494622
-2.494611
-2.494601
-2.494590
-2.494579
-2.494570
-2.496613
-2.496596
-2.496581
-2.496565
-2.496549
-2.496532
-2.496516
-2.496500
-2.496484
-2.496468
-2.496351
-2.496335
-2.496321
-2.496305
-2.496291
-2.496275
-2.496259
-2.496243
-2.496229
-2.496214
-2.496104
-2.496088
-2.496073
-2.496058
-2.496043
-2.496029
-2.496016
-2.496000
-2.495987
-2.495972
-2.495865
-2.495851
-2.495837
-2.495822
-2.495809
-2.495795
-2.495782
-2.495768
-2.495753
-2.495740
-2.495639
-2.495626
-2.495612
-2.495597
-2.495584
-2.495573
-2.495558
-2.495545
-2.495532
-2.495520
-2.495422
-2.495409
-2.495398
-2.495386
-2.495373
-2.495358
-2.495346
-2.495333
-2.495321
-2.495309
-2.495216
-2.495204
-2.495192
-2.495179
-2.495168
-2.495157
-2.495143
-2.495131
-2.495120
-2.495108
-2.495020
-2.495008
-2.494997
-2.494984
-2.494972
-2.494963
-2.494951
-2.494940
-2.494928
-2.494915
-2.494833
-2.494822
-2.494811
-2.494799
-2.494788
-2.494778
-2.494765
-2.494756
-2.494744
-2.494733
-2.494654
-2.494643
-2.494633
-2.494622
-2.494611
-2.494600
-2.494590
-2.494579
-2.494571
-2.494559
-2.496596
-2.496580
-2.496564
-2.496549
-2.496532
-2.496516
-2.496500
-2.496484
-2.496468
-2.496452
-2.496336
-2.496321
-2.496305
-2.496290
-2.496276
-2.496260
-2.496243
-2.496228
-2.496215
-2.496198
-2.496089
-2.496073
-2.496058
-2.496043
-2.496029
-2.496015
-2.496000
-2.495987
-2.495971
-2.495956
-2.495851
-2.495837
-2.495822
-2.495809
-2.495794
-2.495782
-2.495768
-2.495753
-2.495740
-2.495725
-2.495625
-2.495612
-2.495597
-2.495585
-2.495573
-2.495557
-2.495544
-2.495532
-2.495519
-2.495506
-2.495410
-2.495397
-2.495385
-2.495373
-2.495358
-2.495345
-2.495333
-2.495321
-2.495308
-2.495295
-2.495204
-2.495192
-2.495178
-2.495167
-2.495157
-2.495143
-2.495132
-2.495119
-2.495108
-2.495096
-2.495009
-2.494996
-2.494984
-2.494972
-2.494963
-2.494950
-2.494940
-2.494928
-2.494915
-2.494904
-2.494821
-2.494811
-2.494799
-2.494788
-2.494778
-2.494765
-2.494755
-2.494744
-2.494733
-2.494721
-2.494644
-2.494633
-2.494622
-2.494610
-2.494601
-2.494590
-2.494580
-2.494570
-2.494559
-2.494549
-2.496581
-2.496564
-2.496548
-2.496532
-2.496515
-2.496499
-2.496484
-2.496468
-2.496451
-2.496435
-2.496320
-2.496305
-2.496291
-2.496275
-2.496259
-2.496243
-2.496228
-2.496214
-2.496198
-2.496184
-2.496073
-2.496058
-2.496042
-2.496029
-2.496015
-2.496000
-2.495986
-2.495971
-2.495955
-2.495943
-2.495837
-2.495823
-2.495809
-2.495794
-2.495781
-2.495768
-2.495753
-2.495739
-2.495724
-2.495712
-2.495612
-2.495597
-2.495584
-2.495573
-2.495558
-2.495545
-2.495531
-2.495519
-2.495506
-2.495492
-2.495397
-2.495384
-2.495373
-2.495359
-2.495345
-2.495333
-2.495321
-2.495308
-2.495296
-2.495284
-2.495191
-2.495178
-2.495168
-2.495157
-2.495143
-2.495131
-2.495119
-2.495107
-2.495095
-2.495083
-2.494997
-2.494984
-2.494973
-2.494962
-2.494951
-2.494939
-2.494927
-2.494915
-2.494904
-2.494894
-2.494811
-2.494799
-2.494788
-2.494778
-2.494766
-2.494755
-2.494743
-2.494733
-2.494722
-2.494710
-2.494633
-2.494622
-2.494610
-2.494601
-2.494589
-2.494579
-2.494570
-2.494558
-2.494549
-2.494538
-2.496563
-2.496548
-2.496532
-2.496516
-2.496500
-2.496484
-2.496468
-2.496452
-2.496435
-2.496420
-2.496304
-2.496290
-2.496275
-2.496259
-2.496243
-2.496228
-2.496213
-2.496197
-2.496184
-2.496168
-2.496058
-2.496043
-2.496029
-2.496015
-2.495999
-2.495986
-2.495971
-2.495956
-2.495942
-2.495928
-2.495822
-2.495809
-2.495793
-2.495781
-2.495768
-2.495753
-2.495740
-2.495724
-2.495712
-2.495697
-2.495597
-2.495584
-2.495572
-2.495558
-2.495545
-2.495531
-2.495519
-2.495506
-2.495492
-2.495480
-2.495384
-2.495373
-2.495358
-2.495345
-2.495333
-2.495321
-2.495308
-2.495296
-2.495283
-2.495271
-2.495178
-2.495168
-2.495157
-2.495143
-2.495131
-2.495118
-2.495107
-2.495096
-2.495083
-2.495072
-2.494984
-2.494972
-2.494962
-2.494950
-2.494939
-2.494927
-2.494914
-2.494905
-2.494893
-2.494883
-2.494799
-2.494788
-2.494778
-2.494765
-2.494756
-2.494744
-2.494733
-2.494722
-2.494710
-2.494701
-2.494622
-2.494611
-2.494601
-2.494589
-2.494579
-2.494570
-2.494558
-2.494548
-2.494537
-2.494528
-2.496548
-2.496532
-2.496515
-2.496499
-2.496484
-2.496468
-2.496451
-2.496435
-2.496420
-2.496405
-2.496290
-2.496274
-2.496259
-2.496243
-2.496227
-2.496214
-2.496197
-2.496183
-2.496168
-2.496152
-2.496043
-2.496029
-2.496014
-2.495999
-2.495985
-2.495971
-2.495955
-2.495942
-2.495927
-2.495914
-2.495809
-2.495794
-2.495781
-2.495768
-2.495753
-2.495739
-2.495725
-2.495712
-2.495697
-2.495684
-2.495584
-2.495572
-2.495558
-2.495545
-2.495531
-2.495519
-2.495505
-2.495492
-2.495479
-2.495465
-2.495372
-2.495359
-2.495346
-2.495333
-2.495321
-2.495308
-2.495296
-2.495283
-2.495270
-2.495258
-2.495168
-2.495157
-2.495142
-2.495131
-2.495119
-2.495106
-2.495096
-2.495084
-2.495071
-2.495060
-2.494972
-2.494962
-2.494951
-2.494939
-2.494926
-2.494914
-2.494904
-2.494893
-2.494882
-2.494870
-2.494788
-2.494778
-2.494765
-2.494755
-2.494743
-2.494732
-2.494721
-2.494711
-2.494701
-2.494691
-2.494610
-2.494601
-2.494590
-2.494579
-2.494570
-2.494559
-2.494548
-2.494537
-2.494527
-2.494518
-2.496532
-2.496515
-2.496498
-2.496483
-2.496468
-2.496450
-2.496435
-2.496421
-2.496404
-2.496389
-2.496274
-2.496258
-2.496243
-2.496227
-2.496214
-2.496196
-2.496183
-2.496168
-2.496153
-2.496138
-2.496028
-2.496014
-2.495999
-2.495985
-2.495971
-2.495955
-2.495943
-2.495927
-2.495914
-2.495898
-2.495794
-2.495781
-2.495767
-2.495753
-2.495739
-2.495724
-2.495711
-2.495696
-2.495684
-2.495670
-2.495572
-2.495558
-2.495544
-2.495531
-2.495519
-2.495505
-2.495492
-2.495478
-2.495466
-2.495453
-2.495358
-2.495346
-2.495332
-2.495321
-2.495307
-2.495296
-2.495284
-2.495270
-2.495258
-2.495245
-2.495156
-2.495143
-2.495131
-2.495118
-2.495107
-2.495095
-2.495083
-2.495071
-2.495059
-2.495047
-2.494962
-2.494950
-2.494939
-2.494926
-2.494915
-2.494904
-2.494893
-2.494882
-2.494869
-2.494858
-2.494777
-2.494765
-2.494755
-2.494743
-2.494733
-2.494722
-2.494710
-2.494701
-2.494690