# vtk DataFile Version 3.0
PINN prediction t=2979.310302734375
ASCII
DATASET UNSTRUCTURED_GRID
POINTS 1000 float
0.000000 0.000000 0.000000
0.000000 0.000000 0.044444
0.000000 0.000000 0.088889
0.000000 0.000000 0.133333
0.000000 0.000000 0.177778
0.000000 0.000000 0.222222
0.000000 0.000000 0.266667
0.000000 0.000000 0.311111
0.000000 0.000000 0.355556
0.000000 0.000000 0.400000
0.000000 0.088889 0.000000
0.000000 0.088889 0.044444
0.000000 0.088889 0.088889
0.000000 0.088889 0.133333
0.000000 0.088889 0.177778
0.000000 0.088889 0.222222
0.000000 0.088889 0.266667
0.000000 0.088889 0.311111
0.000000 0.088889 0.355556
0.000000 0.088889 0.400000
0.000000 0.177778 0.000000
0.000000 0.177778 0.044444
0.000000 0.177778 0.088889
0.000000 0.177778 0.133333
0.000000 0.177778 0.177778
0.000000 0.177778 0.222222
0.000000 0.177778 0.266667
0.000000 0.177778 0.311111
0.000000 0.177778 0.355556
0.000000 0.177778 0.400000
0.000000 0.266667 0.000000
0.000000 0.266667 0.044444
0.000000 0.266667 0.088889
0.000000 0.266667 0.133333
0.000000 0.266667 0.177778
0.000000 0.266667 0.222222
0.000000 0.266667 0.266667
0.000000 0.266667 0.311111
0.000000 0.266667 0.355556
0.000000 0.266667 0.400000
0.000000 0.355556 0.000000
0.000000 0.355556 0.044444
0.000000 0.355556 0.088889
0.000000 0.355556 0.133333
0.000000 0.355556 0.177778
0.000000 0.355556 0.222222
0.000000 0.355556 0.266667
0.000000 0.355556 0.311111
0.000000 0.355556 0.355556
0.000000 0.355556 0.400000
0.000000 0.444444 0.000000
0.000000 0.444444 0.044444
0.000000 0.444444 0.088889
0.000000 0.444444 0.133333
0.000000 0.444444 0.177778
0.000000 0.444444 0.222222
0.000000 0.444444 0.266667
0.000000 0.444444 0.311111
0.000000 0.444444 0.355556
0.000000 0.444444 0.400000
0.000000 0.533333 0.000000
0.000000 0.533333 0.044444
0.000000 0.533333 0.088889
0.000000 0.533333 0.133333
0.000000 0.533333 0.177778
0.000000 0.533333 0.222222
0.000000 0.533333 0.266667
0.000000 0.533333 0.311111
0.000000 0.533333 0.355556
0.000000 0.533333 0.400000
0.000000 0.622222 0.000000
0.000000 0.622222 0.044444
0.000000 0.622222 0.088889
0.000000 0.622222 0.133333
0.000000 0.622222 0.177778
0.000000 0.622222 0.222222
0.000000 0.622222 0.266667
0.000000 0.622222 0.311111
0.000000 0.622222 0.355556
0.000000 0.622222 0.400000
0.000000 0.711111 0.000000
0.000000 0.711111 0.044444
0.000000 0.711111 0.088889
0.000000 0.711111 0.133333
0.000000 0.711111 0.177778
0.000000 0.711111 0.222222
0.000000 0.711111 0.266667
0.000000 0.711111 0.311111
0.000000 0.711111 0.355556
0.000000 0.711111 0.400000
0.000000 0.800000 0.000000
0.000000 0.800000 0.044444
0.000000 0.800000 0.088889
0.000000 0.800000 0.133333
0.000000 0.800000 0.177778
0.000000 0.800000 0.222222
0.000000 0.800000 0.266667
0.000000 0.800000 0.311111
0.000000 0.800000 0.355556
0.000000 0.800000 0.400000
0.044444 0.000000 0.000000
0.044444 0.000000 0.044444
0.044444 0.000000 0.088889
0.044444 0.000000 0.133333
0.044444 0.000000 0.177778
0.044444 0.000000 0.222222
0.044444 0.000000 0.266667
0.044444 0.000000 0.311111
0.044444 0.000000 0.355556
0.044444 0.000000 0.400000
0.044444 0.088889 0.000000
0.044444 0.088889 0.044444
0.044444 0.088889 0.088889
0.044444 0.088889 0.133333
0.044444 0.088889 0.177778
0.044444 0.088889 0.222222
0.044444 0.088889 0.266667
0.044444 0.088889 0.311111
0.044444 0.088889 0.355556
0.044444 0.088889 0.400000
0.044444 0.177778 0.000000
0.044444 0.177778 0.044444
0.044444 0.177778 0.088889
0.044444 0.177778 0.133333
0.044444 0.177778 0.177778
0.044444 0.177778 0.222222
0.044444 0.177778 0.266667
0.044444 0.177778 0.311111
0.044444 0.177778 0.355556
0.044444 0.177778 0.400000
0.044444 0.266667 0.000000
0.044444 0.266667 0.044444
0.044444 0.266667 0.088889
0.044444 0.266667 0.133333
0.044444 0.266667 0.177778
0.044444 0.266667 0.222222
0.044444 0.266667 0.266667
0.044444 0.266667 0.311111
0.044444 0.266667 0.355556
0.044444 0.266667 0.400000
0.044444 0.355556 0.000000
0.044444 0.355556 0.044444
0.044444 0.355556 0.088889
0.044444 0.355556 0.133333
0.044444 0.355556 0.177778
0.044444 0.355556 0.222222
0.044444 0.355556 0.266667
0.044444 0.355556 0.311111
0.044444 0.355556 0.355556
0.044444 0.355556 0.400000
0.044444 0.444444 0.000000
0.044444 0.444444 0.044444
0.044444 0.444444 0.088889
0.044444 0.444444 0.133333
0.044444 0.444444 0.177778
0.044444 0.444444 0.222222
0.044444 0.444444 0.266667
0.044444 0.444444 0.311111
0.044444 0.444444 0.355556
0.044444 0.444444 0.400000
0.044444 0.533333 0.000000
0.044444 0.533333 0.044444
0.044444 0.533333 0.088889
0.044444 0.533333 0.133333
0.044444 0.533333 0.177778
0.044444 0.533333 0.222222
0.044444 0.533333 0.266667
0.044444 0.533333 0.311111
0.044444 0.533333 0.355556
0.044444 0.533333 0.400000
0.044444 0.622222 0.000000
0.044444 0.622222 0.044444
0.044444 0.622222 0.088889
0.044444 0.622222 0.133333
0.044444 0.622222 0.177778
0.044444 0.622222 0.222222
0.044444 0.622222 0.266667
0.044444 0.622222 0.311111
0.044444 0.622222 0.355556
0.044444 0.622222 0.400000
0.044444 0.711111 0.000000
0.044444 0.711111 0.044444
0.044444 0.711111 0.088889
0.044444 0.711111 0.133333
0.044444 0.711111 0.177778
0.044444 0.711111 0.222222
0.044444 0.711111 0.266667
0.044444 0.711111 0.311111
0.044444 0.711111 0.355556
0.044444 0.711111 0.400000
0.044444 0.800000 0.000000
0.044444 0.800000 0.044444
0.044444 0.800000 0.088889
0.044444 0.800000 0.133333
0.044444 0.800000 0.177778
0.044444 0.800000 0.222222
0.044444 0.800000 0.266667
0.044444 0.800000 0.311111
0.044444 0.800000 0.355556
0.044444 0.800000 0.400000
0.088889 0.000000 0.000000
0.088889 0.000000 0.044444
0.088889 0.000000 0.088889
0.088889 0.000000 0.133333
0.088889 0.000000 0.177778
0.088889 0.000000 0.222222
0.088889 0.000000 0.266667
0.088889 0.000000 0.311111
0.088889 0.000000 0.355556
0.088889 0.000000 0.400000
0.088889 0.088889 0.000000
0.088889 0.088889 0.044444
0.088889 0.088889 0.088889
0.088889 0.088889 0.133333
0.088889 0.088889 0.177778
0.088889 0.088889 0.222222
0.088889 0.088889 0.266667
0.088889 0.088889 0.311111
0.088889 0.088889 0.355556
0.088889 0.088889 0.400000
0.088889 0.177778 0.000000
0.088889 0.177778 0.044444
0.088889 0.177778 0.088889
0.088889 0.177778 0.133333
0.088889 0.177778 0.177778
0.088889 0.177778 0.222222
0.088889 0.177778 0.266667
0.088889 0.177778 0.311111
0.088889 0.177778 0.355556
0.088889 0.177778 0.400000
0.088889 0.266667 0.000000
0.088889 0.266667 0.044444
0.088889 0.266667 0.088889
0.088889 0.266667 0.133333
0.088889 0.266667 0.177778
0.088889 0.266667 0.222222
0.088889 0.266667 0.266667
0.088889 0.266667 0.311111
0.088889 0.266667 0.355556
0.088889 0.266667 0.400000
0.088889 0.355556 0.000000
0.088889 0.355556 0.044444
0.088889 0.355556 0.088889
0.088889 0.355556 0.133333
0.088889 0.355556 0.177778
0.088889 0.355556 0.222222
0.088889 0.355556 0.266667
0.088889 0.355556 0.311111
0.088889 0.355556 0.355556
0.088889 0.355556 0.400000
0.088889 0.444444 0.000000
0.088889 0.444444 0.044444
0.088889 0.444444 0.088889
0.088889 0.444444 0.133333
0.088889 0.444444 0.177778
0.088889 0.444444 0.222222
0.088889 0.444444 0.266667
0.088889 0.444444 0.311111
0.088889 0.444444 0.355556
0.088889 0.444444 0.400000
0.088889 0.533333 0.000000
0.088889 0.533333 0.044444
0.088889 0.533333 0.088889
0.088889 0.533333 0.133333
0.088889 0.533333 0.177778
0.088889 0.533333 0.222222
0.088889 0.533333 0.266667
0.088889 0.533333 0.311111
0.088889 0.533333 0.355556
0.088889 0.533333 0.400000
0.088889 0.622222 0.000000
0.088889 0.622222 0.044444
0.088889 0.622222 0.088889
0.088889 0.622222 0.133333
0.088889 0.622222 0.177778
0.088889 0.622222 0.222222
0.088889 0.622222 0.266667
0.088889 0.622222 0.311111
0.088889 0.622222 0.355556
0.088889 0.622222 0.400000
0.088889 0.711111 0.000000
0.088889 0.711111 0.044444
0.088889 0.711111 0.088889
0.088889 0.711111 0.133333
0.088889 0.711111 0.177778
0.088889 0.711111 0.222222
0.088889 0.711111 0.266667
0.088889 0.711111 0.311111
0.088889 0.711111 0.355556
0.088889 0.711111 0.400000
0.088889 0.800000 0.000000
0.088889 0.800000 0.044444
0.088889 0.800000 0.088889
0.088889 0.800000 0.133333
0.088889 0.800000 0.177778
0.088889 0.800000 0.222222
0.088889 0.800000 0.266667
0.088889 0.800000 0.311111
0.088889 0.800000 0.355556
0.088889 0.800000 0.400000
0.133333 0.000000 0.000000
0.133333 0.000000 0.044444
0.133333 0.000000 0.088889
0.133333 0.000000 0.133333
0.133333 0.000000 0.177778
0.133333 0.000000 0.222222
0.133333 0.000000 0.266667
0.133333 0.000000 0.311111
0.133333 0.000000 0.355556
0.133333 0.000000 0.400000
0.133333 0.088889 0.000000
0.133333 0.088889 0.044444
0.133333 0.088889 0.088889
0.133333 0.088889 0.133333
0.133333 0.088889 0.177778
0.133333 0.088889 0.222222
0.133333 0.088889 0.266667
0.133333 0.088889 0.311111
0.133333 0.088889 0.355556
0.133333 0.088889 0.400000
0.133333 0.177778 0.000000
0.133333 0.177778 0.044444
0.133333 0.177778 0.088889
0.133333 0.177778 0.133333
0.133333 0.177778 0.177778
0.133333 0.177778 0.222222
0.133333 0.177778 0.266667
0.133333 0.177778 0.311111
0.133333 0.177778 0.355556
0.133333 0.177778 0.400000
0.133333 0.266667 0.000000
0.133333 0.266667 0.044444
0.133333 0.266667 0.088889
0.133333 0.266667 0.133333
0.133333 0.266667 0.177778
0.133333 0.266667 0.222222
0.133333 0.266667 0.266667
0.133333 0.266667 0.311111
0.133333 0.266667 0.355556
0.133333 0.266667 0.400000
0.133333 0.355556 0.000000
0.133333 0.355556 0.044444
0.133333 0.355556 0.088889
0.133333 0.355556 0.133333
0.133333 0.355556 0.177778
0.133333 0.355556 0.222222
0.133333 0.355556 0.266667
0.133333 0.355556 0.311111
0.133333 0.355556 0.355556
0.133333 0.355556 0.400000
0.133333 0.444444 0.000000
0.133333 0.444444 0.044444
0.133333 0.444444 0.088889
0.133333 0.444444 0.133333
0.133333 0.444444 0.177778
0.133333 0.444444 0.222222
0.133333 0.444444 0.266667
0.133333 0.444444 0.311111
0.133333 0.444444 0.355556
0.133333 0.444444 0.400000
0.133333 0.533333 0.000000
0.133333 0.533333 0.044444
0.133333 0.533333 0.088889
0.133333 0.533333 0.133333
0.133333 0.533333 0.177778
0.133333 0.533333 0.222222
[...]
POINT_DATA 1000
SCALARS Temperature float 1
LOOKUP_TABLE default
89.757599
89.809906
89.862213
89.914490
89.966583
90.018768
90.070862
90.122894
90.175018
90.227051
90.610321
90.662018
90.713745
90.765289
90.816864
90.868500
90.919922
90.971405
91.022797
91.074249
91.452850
91.503845
91.554840
91.605774
91.656769
91.707733
91.758484
91.809357
91.859985
91.910797
92.284271
92.334686
92.384979
92.435303
92.485535
92.535645
92.585815
92.635895
92.685883
92.736023
93.104126
93.153809
93.203339
93.252899
93.302338
93.351868
93.401276
93.450439
93.499908
93.549072
93.911591
93.960510
94.009247
94.057922
94.106720
94.155273
94.203949
94.252472
94.300995
94.349457
94.706055
94.754181
94.802063
94.850037
94.897888
94.945740
94.993530
95.041229
95.088867
95.136505
95.487030
95.534149
95.581329
95.628387
95.675323
95.722382
95.769348
95.816193
95.863007
95.909821
96.253723
96.300049
96.346375
96.392548
96.438690
96.484802
96.530823
96.576935
96.622772
96.668671
97.006073
97.051514
97.096893
97.142059
97.187347
97.232483
97.277649
97.322784
97.367828
97.412659
89.810516
89.862701
89.914948
89.967163
90.019165
90.071472
90.123505
90.175537
90.227539
90.279419
90.662415
90.714203
90.765869
90.817352
90.868927
90.920471
90.971893
91.023376
91.074677
91.126007
91.504333
91.555420
91.606354
91.657196
91.708160
91.759003
91.809723
91.860504
91.911346
91.961945
92.335205
92.385529
92.435760
92.485992
92.536163
92.586334
92.636383
92.686432
92.736450
92.786346
93.154205
93.203888
93.253357
93.302765
93.352295
93.401672
93.451019
93.500366
93.549591
93.598724
93.960999
94.009613
94.058502
94.107269
94.155762
94.204437
94.252960
94.301483
94.349915
94.398254
94.754578
94.802551
94.850494
94.898407
94.946167
94.993927
95.041718
95.089355
95.136993
95.184570
95.534637
95.581848
95.628906
95.675903
95.722900
95.769775
95.816620
95.863434
95.910187
95.956940
96.300568
96.346832
96.393036
96.439240
96.485199
96.531219
96.577332
96.623199
96.669098
96.714905
97.051910
97.097229
97.142548
97.187836
97.233063
97.278137
97.323212
97.368195
97.413239
97.458160
89.863220
89.915436
89.967621
90.019684
90.071808
90.123962
90.176117
90.227997
90.279938
90.331909
90.714691
90.766266
90.817841
90.869354
90.920929
90.972443
91.023926
91.075226
91.126556
91.177765
91.555908
91.606842
91.657776
91.708649
91.759491
91.810303
91.860992
91.911774
91.962372
92.013123
92.385956
92.436310
92.486481
92.536682
92.586761
92.636871
92.686890
92.736938
92.786896
92.836792
93.204346
93.253876
93.303253
93.352814
93.402161
93.451447
93.500763
93.550018
93.599243
93.648407
94.010193
94.058990
94.107697
94.156311
94.204834
94.253479
94.302002
94.350372
94.398743
94.447052
94.803070
94.850922
94.898926
94.946625
94.994476
95.042206
95.089783
95.137451
95.185028
95.232483
95.582275
95.629303
95.676392
95.723297
95.770294
95.817047
95.863922
95.910614
95.957336
96.004089
96.347290
96.393524
96.439575
96.485657
96.531708
96.577820
96.623688
96.669586
96.715302
96.761200
97.097656
97.143036
97.188324
97.233429
97.278534
97.323639
97.368652
97.413635
97.458557
97.503326
89.915985
89.968201
90.020294
90.072449
90.124542
90.176514
90.228485
90.280365
90.332367
90.384369
90.766754
90.818390
90.869965
90.921478
90.972931
91.024323
91.075684
91.126984
91.178253
91.229614
91.607330
91.658173
91.709167
91.759918
91.810760
91.861542
91.912262
91.962952
92.013580
92.064240
92.436798
92.486908
92.537170
92.587280
92.637390
92.687469
92.737396
92.787415
92.837250
92.887115
93.254364
93.303741
93.353241
93.402649
93.451965
93.501251
93.550476
93.599640
93.648834
93.697968
94.059387
94.108124
94.156769
94.205353
94.253906
94.302399
94.350830
94.399323
94.447510
94.495850
94.851410
94.899323
94.947083
94.994873
95.042725
95.090393
95.137878
95.185516
95.232910
95.280487
95.629730
95.676788
95.723724
95.770691
95.817596
95.864532
95.911163
95.957886
96.004425
96.051117
96.393921
96.440155
96.486115
96.532135
96.578247
96.624207
96.669983
96.715729
96.761597
96.807343
97.143372
97.188599
97.233887
97.278931
97.324036
97.369110
97.413971
97.458893
97.503815
97.548553
89.968781
90.020813
90.072968
90.124969
90.177063
90.229065
90.280945
90.332947
90.384857
90.436768
90.818878
90.870483
90.922028
90.973419
91.024841
91.076263
91.127533
91.178894
91.229980
91.281403
91.658722
91.709656
91.760468
91.811310
91.862030
91.912842
91.963470
92.014069
92.064636
92.115173
92.487457
92.537567
92.587769
92.637848
92.687836
92.737976
92.787872
92.837769
92.887604
92.937439
93.304321
93.353760
93.403168
93.452515
93.501740
93.550964
93.600128
93.649323
93.698334
93.747467
94.108612
94.157227
94.205841
94.254425
94.302917
94.351379
94.399719
94.448059
94.496521
94.544586
94.899811
94.947540
94.995483
95.043152
95.090790
95.138367
95.185974
95.233490
95.281006
95.328491
95.677277
95.724243
95.771179
95.817963
95.864899
95.911560
95.958344
96.004913
96.051605
96.098083
96.440552
96.486603
96.532654
96.578674
96.624542
96.670410
96.716248
96.761902
96.807709
96.853424
97.189056
97.234344
97.279449
97.324554
97.369568
97.414429
97.459473
97.504181
97.548950
97.593689
90.021362
90.073425
90.125519
90.177551
90.229584
90.281586
90.333405
90.385406
90.437286
90.489044
90.870941
90.922516
90.973938
91.025330
91.076782
91.127960
91.179413
91.230591
91.281799
91.332977
91.710144
91.760986
91.811768
91.862427
91.913239
91.963928
92.014526
92.065155
92.115662
92.166229
92.538177
92.588257
92.638275
92.688416
92.738403
92.788422
92.838348
92.888092
92.937958
92.987701
93.354248
93.403595
93.453003
93.502197
93.551483
93.600739
93.649811
93.698914
93.747955
93.796936
94.157745
94.206238
94.254913
94.303436
94.351776
94.400269
94.448517
94.496918
94.545105
94.593292
94.948120
94.995850
95.043579
95.091339
95.138885
95.186462
95.233917
95.281433
95.328827
95.376251
95.724701
95.771729
95.818390
95.865326
95.912048
95.958832
96.005463
96.052002
96.098572
96.145111
96.486969
96.533081
96.579071
96.625031
96.670868
96.716705
96.762543
96.808105
96.853851
96.899384
97.234680
97.279907
97.324921
97.370026
97.414886
97.459869
97.504578
97.549408
97.594177
97.638824
90.073975
90.126007
90.177948
90.230072
90.282013
90.333923
90.385864
90.437714
90.489563
90.541351
90.922943
90.974426
91.025879
91.077301
91.128448
91.179901
91.231110
91.282440
91.333527
91.384705
91.761505
91.812286
91.863007
91.913757
91.964417
92.015015
92.065613
92.116211
92.166748
92.217102
92.588776
92.638855
92.688965
92.738831
92.788910
92.838837
92.888580
92.938446
92.988159
93.037933
93.404114
93.453491
93.502655
93.551910
93.601196
93.650269
93.699432
93.748383
93.797394
93.846405
94.206787
94.255341
94.303894
94.352386
94.400726
94.449036
94.497284
94.545593
94.593781
94.641937
94.996338
95.044006
95.091766
95.139374
95.186920
95.234467
95.281891
95.329315
95.376678
95.423981
95.772034
95.818939
95.865723
95.912567
95.959290
96.005951
96.052429
96.099060
96.145477
96.192017
96.533539
96.579559
96.625488
96.671265
96.717163
96.762939
96.808655
96.854218
96.899841
96.945404
97.280304
97.325348
97.370422
97.415344
97.460266
97.505035
97.549896
97.594696
97.639313
97.683929
90.126556
90.178558
90.230591
90.282562
90.334564
90.386353
90.438232
90.490051
90.541870
90.593597
90.975006
91.026306
91.077820
91.129120
91.180359
91.231689
91.282867
91.333954
91.385223
91.436340
91.812836
91.863586
91.914246
91.964905
92.015472
92.066132
92.116730
92.167267
92.217651
92.268066
92.639374
92.689423
92.739410
92.789398
92.839203
92.889099
92.938965
92.988617
93.038391
93.087982
93.453949
93.503296
93.552551
93.601654
93.650726
93.699890
93.748993
93.797913
93.846924
93.895844
94.255768
94.304382
94.352753
94.401276
94.449493
94.497894
94.545990
94.594360
94.642426
94.690582
95.044525
95.092194
95.139801
95.187317
95.234924
95.282379
95.329712
95.377167
95.424469
95.471741
95.819427
95.866211
95.912933
95.959717
96.006439
96.052887
96.099579
96.146027
96.192413
96.238770
96.579987
96.625885
96.671844
96.717621
96.763397
96.809204
96.854706
96.900330
96.945862
96.991394
97.325836
97.370819
97.415802
97.460632
97.505524
97.550323
97.595001
97.639771
97.684357
97.728851
90.179169
90.231079
90.283051
90.334991
90.386932
90.438751
90.490631
90.542389
90.594147
90.645844
91.026855
91.078369
91.129639
91.180878
91.232117
91.283447
91.334595
91.385712
91.436798
91.487915
91.864044
91.914764
91.965485
92.016083
92.066681
92.117218
92.167664
92.218109
92.268555
92.318909
92.689880
92.739929
92.789856
92.839722
92.889587
92.939514
92.989197
93.038910
93.088531
93.138275
93.503662
93.552979
93.602112
93.651306
93.700287
93.749481
93.798370
93.847382
93.896271
93.945221
94.304779
94.353271
94.401703
94.449921
94.498352
94.546478
94.594788
94.642853
94.691010
94.739044
95.092712
95.140259
95.187897
95.235382
95.282806
95.330292
95.377655
95.424896
95.472198
95.519348
95.866669
95.913422
95.960114
96.006775
96.053314
96.099945
96.146393
96.192841
96.239227
96.285492
96.626373
96.672211
96.717987
96.763794
96.809509
96.855072
96.900818
96.946320
96.991852
97.037292
97.371277
97.416199
97.461151
97.506042
97.550812
97.595551
97.640167
97.684784
97.729340
97.773895
90.231659
90.283539
90.335541
90.387421
90.439301
90.491150
90.542908
90.594696
90.646210
90.698029
91.078796
91.130127
91.181458
91.232697
91.283905
91.335083
91.386322
91.437286
91.488464
91.539398
91.915314
91.965912
92.016571
92.067108
92.117706
92.168152
92.218536
92.269073
92.319305
92.369720
92.740295
92.790314
92.840179
92.890137
92.939850
92.989655
93.039398
93.089020
93.138672
93.188202
93.553375
93.602631
93.651642
93.700836
93.749939
93.798828
93.847900
93.896759
93.945648
93.994476
94.353790
94.402069
94.450439
94.498749
94.547028
94.595184
94.643280
94.691498
94.739502
94.787537
95.140717
95.188232
95.235779
95.283295
95.330688
95.378082
95.425354
95.472687
95.519867
95.567047
95.913910
95.960571
96.007172
96.053802
96.100403
96.146790
96.193329
96.239777
96.286041
96.332336
96.672760
96.718414
96.764313
96.809967
96.855621
96.901215
96.946838
96.992310
97.037689
97.083008
97.416656
97.461517
97.506470
97.551239
97.595947
97.640656
97.685181
97.729767
97.774353
97.818756

SCALARS Alpha float 1
LOOKUP_TABLE default
-2.856376
-2.855708
-2.855040
-2.854373
-2.853705
-2.853040
-2.852373
-2.851708
-2.851042
-2.850379
-2.845494
-2.844834
-2.844174
-2.843514
-2.842856
-2.842198
-2.841541
-2.840885
-2.840228
-2.839571
-2.834753
-2.834100
-2.833450
-2.832799
-2.832151
-2.831502
-2.830853
-2.830204
-2.829557
-2.828912
-2.824161
-2.823519
-2.822877
-2.822237
-2.821597
-2.820957
-2.820318
-2.819680
-2.819043
-2.818406
-2.813727
-2.813097
-2.812464
-2.811835
-2.811204
-2.810575
-2.809946
-2.809318
-2.808690
-2.808064
-2.803462
-2.802841
-2.802218
-2.801601
-2.800980
-2.800362
-2.799744
-2.799126
-2.798510
-2.797894
-2.793372
-2.792761
-2.792150
-2.791542
-2.790933
-2.790325
-2.789719
-2.789112
-2.788506
-2.787902
-2.783463
-2.782863
-2.782264
-2.781666
-2.781069
-2.780473
-2.779877
-2.779283
-2.778688
-2.778095
-2.773742
-2.773156
-2.772568
-2.771981
-2.771397
-2.770810
-2.770227
-2.769644
-2.769061
-2.768479
-2.764215
-2.763639
-2.763064
-2.762489
-2.761917
-2.761345
-2.760772
-2.760201
-2.759629
-2.759061
-2.855703
-2.855034
-2.854367
-2.853699
-2.853033
-2.852368
-2.851703
-2.851037
-2.850374
-2.849709
-2.844829
-2.844169
-2.843509
-2.842851
-2.842193
-2.841537
-2.840878
-2.840223
-2.839567
-2.838909
-2.834096
-2.833446
-2.832796
-2.832146
-2.831496
-2.830849
-2.830200
-2.829553
-2.828906
-2.828259
-2.823514
-2.822874
-2.822232
-2.821592
-2.820952
-2.820313
-2.819675
-2.819038
-2.818401
-2.817764
-2.813093
-2.812460
-2.811829
-2.811200
-2.810570
-2.809941
-2.809314
-2.808686
-2.808059
-2.807432
-2.802837
-2.802215
-2.801596
-2.800976
-2.800357
-2.799739
-2.799121
-2.798504
-2.797889
-2.797273
-2.792757
-2.792147
-2.791538
-2.790929
-2.790321
-2.789715
-2.789107
-2.788501
-2.787896
-2.787292
-2.782859
-2.782260
-2.781663
-2.781065
-2.780470
-2.779873
-2.779278
-2.778685
-2.778090
-2.777498
-2.773150
-2.772563
-2.771977
-2.771392
-2.770807
-2.770223
-2.769639
-2.769058
-2.768476
-2.767894
-2.763635
-2.763061
-2.762486
-2.761912
-2.761341
-2.760768
-2.760196
-2.759627
-2.759057
-2.758488
-2.855029
-2.854361
-2.853694
-2.853027
-2.852362
-2.851697
-2.851032
-2.850369
-2.849703
-2.849041
-2.844164
-2.843505
-2.842846
-2.842188
-2.841531
-2.840874
-2.840217
-2.839561
-2.838906
-2.838250
-2.833440
-2.832790
-2.832140
-2.831491
-2.830844
-2.830196
-2.829547
-2.828901
-2.828254
-2.827609
-2.822867
-2.822228
-2.821587
-2.820947
-2.820309
-2.819670
-2.819034
-2.818396
-2.817760
-2.817123
-2.812455
-2.811825
-2.811195
-2.810564
-2.809936
-2.809309
-2.808681
-2.808054
-2.807427
-2.806802
-2.802211
-2.801591
-2.800972
-2.800353
-2.799733
-2.799116
-2.798500
-2.797884
-2.797268
-2.796653
-2.792142
-2.791533
-2.790923
-2.790317
-2.789709
-2.789103
-2.788497
-2.787892
-2.787288
-2.786685
-2.782257
-2.781659
-2.781062
-2.780465
-2.779869
-2.779275
-2.778680
-2.778085
-2.777492
-2.776902
-2.772559
-2.771973
-2.771388
-2.770803
-2.770219
-2.769635
-2.769053
-2.768472
-2.767889
-2.767308
-2.763056
-2.762483
-2.761909
-2.761336
-2.760764
-2.760193
-2.759622
-2.759052
-2.758483
-2.757916
-2.854357
-2.853690
-2.853023
-2.852357
-2.851691
-2.851026
-2.850363
-2.849698
-2.849035
-2.848372
-2.843498
-2.842841
-2.842184
-2.841525
-2.840869
-2.840213
-2.839556
-2.838901
-2.838246
-2.837592
-2.832786
-2.832136
-2.831486
-2.830839
-2.830191
-2.829542
-2.828895
-2.828250
-2.827604
-2.826961
-2.822223
-2.821582
-2.820942
-2.820304
-2.819665
-2.819028
-2.818390
-2.817755
-2.817119
-2.816483
-2.811820
-2.811190
-2.810560
-2.809931
-2.809303
-2.808676
-2.808049
-2.807423
-2.806798
-2.806173
-2.801586
-2.800966
-2.800348
-2.799730
-2.799112
-2.798495
-2.797879
-2.797263
-2.796648
-2.796034
-2.791529
-2.790919
-2.790313
-2.789706
-2.789099
-2.788493
-2.787888
-2.787284
-2.786680
-2.786077
-2.781655
-2.781057
-2.780460
-2.779865
-2.779270
-2.778676
-2.778082
-2.777488
-2.776896
-2.776305
-2.771968
-2.771383
-2.770799
-2.770215
-2.769631
-2.769048
-2.768468
-2.767884
-2.767305
-2.766725
-2.762479
-2.761905
-2.761333
-2.760760
-2.760189
-2.759618
-2.759048
-2.758479
-2.757911
-2.757343
-2.853684
-2.853017
-2.852352
-2.851687
-2.851022
-2.850356
-2.849693
-2.849029
-2.848367
-2.847704
-2.842837
-2.842178
-2.841520
-2.840865
-2.840206
-2.839551
-2.838896
-2.838241
-2.837588
-2.836932
-2.832131
-2.831481
-2.830834
-2.830185
-2.829537
-2.828891
-2.828245
-2.827600
-2.826954
-2.826311
-2.821577
-2.820937
-2.820300
-2.819661
-2.819024
-2.818386
-2.817750
-2.817114
-2.816479
-2.815844
-2.811186
-2.810555
-2.809928
-2.809299
-2.808671
-2.808045
-2.807418
-2.806792
-2.806167
-2.805543
-2.800962
-2.800343
-2.799725
-2.799107
-2.798491
-2.797874
-2.797259
-2.796644
-2.796029
-2.795416
-2.790915
-2.790309
-2.789701
-2.789095
-2.788487
-2.787884
-2.787278
-2.786675
-2.786071
-2.785469
-2.781054
-2.780457
-2.779861
-2.779264
-2.778671
-2.778076
-2.777484
-2.776892
-2.776300
-2.775709
-2.771379
-2.770795
-2.770211
-2.769627
-2.769044
-2.768463
-2.767882
-2.767302
-2.766721
-2.766143
-2.761900
-2.761329
-2.760756
-2.760185
-2.759614
-2.759044
-2.758475
-2.757907
-2.757340
-2.756773
-2.853012
-2.852346
-2.851682
-2.851017
-2.850352
-2.849687
-2.849023
-2.848361
-2.847698
-2.847037
-2.842173
-2.841516
-2.840859
-2.840201
-2.839546
-2.838891
-2.838235
-2.837581
-2.836928
-2.836274
-2.831477
-2.830829
-2.830180
-2.829533
-2.828886
-2.828240
-2.827595
-2.826950
-2.826305
-2.825660
-2.820933
-2.820295
-2.819656
-2.819018
-2.818381
-2.817745
-2.817110
-2.816472
-2.815839
-2.815205
-2.810552
-2.809922
-2.809294
-2.808668
-2.808040
-2.807414
-2.806788
-2.806163
-2.805538
-2.804915
-2.800338
-2.799721
-2.799103
-2.798486
-2.797870
-2.797254
-2.796639
-2.796026
-2.795412
-2.794798
-2.790303
-2.789697
-2.789090
-2.788484
-2.787879
-2.787274
-2.786670
-2.786067
-2.785465
-2.784863
-2.780452
-2.779856
-2.779262
-2.778666
-2.778074
-2.777480
-2.776888
-2.776295
-2.775706
-2.775116
-2.770791
-2.770206
-2.769622
-2.769040
-2.768458
-2.767878
-2.767298
-2.766717
-2.766138
-2.765559
-2.761324
-2.760752
-2.760182
-2.759611
-2.759041
-2.758471
-2.757904
-2.757335
-2.756769
-2.756202
-2.852342
-2.851677
-2.851011
-2.850347
-2.849683
-2.849019
-2.848356
-2.847693
-2.847032
-2.846371
-2.841510
-2.840854
-2.840197
-2.839541
-2.838886
-2.838231
-2.837578
-2.836924
-2.836269
-2.835616
-2.830823
-2.830176
-2.829529
-2.828881
-2.828235
-2.827590
-2.826944
-2.826300
-2.825656
-2.825013
-2.820290
-2.819652
-2.819013
-2.818377
-2.817739
-2.817104
-2.816469
-2.815834
-2.815200
-2.814566
-2.809919
-2.809290
-2.808662
-2.808035
-2.807409
-2.806783
-2.806158
-2.805534
-2.804909
-2.804287
-2.799716
-2.799098
-2.798482
-2.797866
-2.797250
-2.796636
-2.796021
-2.795407
-2.794794
-2.794181
-2.789692
-2.789086
-2.788479
-2.787874
-2.787270
-2.786666
-2.786063
-2.785461
-2.784859
-2.784258
-2.779853
-2.779257
-2.778663
-2.778069
-2.777476
-2.776885
-2.776290
-2.775701
-2.775110
-2.774522
-2.770203
-2.769619
-2.769035
-2.768455
-2.767874
-2.767293
-2.766713
-2.766134
-2.765556
-2.764979
-2.760749
-2.760177
-2.759607
-2.759037
-2.758468
-2.757900
-2.757332
-2.756765
-2.756198
-2.755634
-2.851671
-2.851005
-2.850342
-2.849678
-2.849014
-2.848350
-2.847688
-2.847027
-2.846366
-2.845704
-2.840849
-2.840192
-2.839536
-2.838881
-2.838225
-2.837572
-2.836918
-2.836264
-2.835612
-2.834960
-2.830169
-2.829524
-2.828876
-2.828230
-2.827584
-2.826940
-2.826294
-2.825652
-2.825007
-2.824365
-2.819649
-2.819010
-2.818372
-2.817735
-2.817100
-2.816463
-2.815828
-2.815195
-2.814562
-2.813927
-2.809285
-2.808659
-2.808030
-2.807406
-2.806778
-2.806153
-2.805531
-2.804905
-2.804283
-2.803659
-2.799093
-2.798477
-2.797860
-2.797246
-2.796630
-2.796016
-2.795403
-2.794790
-2.794177
-2.793565
-2.789083
-2.788476
-2.787870
-2.787266
-2.786662
-2.786058
-2.785457
-2.784855
-2.784253
-2.783652
-2.779253
-2.778658
-2.778066
-2.777471
-2.776880
-2.776287
-2.775696
-2.775105
-2.774517
-2.773928
-2.769615
-2.769033
-2.768451
-2.767869
-2.767288
-2.766709
-2.766130
-2.765552
-2.764974
-2.764397
-2.760173
-2.759602
-2.759033
-2.758464
-2.757895
-2.757328
-2.756763
-2.756196
-2.755630
-2.755066
-2.851002
-2.850337
-2.849672
-2.849009
-2.848346
-2.847684
-2.847021
-2.846361
-2.845699
-2.845040
-2.840187
-2.839531
-2.838875
-2.838221
-2.837567
-2.836913
-2.836260
-2.835607
-2.834955
-2.834303
-2.829519
-2.828873
-2.828225
-2.827580
-2.826935
-2.826290
-2.825646
-2.825003
-2.824361
-2.823719
-2.819004
-2.818368
-2.817730
-2.817095
-2.816460
-2.815824
-2.815191
-2.814557
-2.813925
-2.813292
-2.808653
-2.808027
-2.807400
-2.806775
-2.806149
-2.805526
-2.804901
-2.804279
-2.803656
-2.803033
-2.798473
-2.797857
-2.797241
-2.796625
-2.796012
-2.795398
-2.794785
-2.794174
-2.793561
-2.792951
-2.788471
-2.787867
-2.787261
-2.786658
-2.786054
-2.785451
-2.784850
-2.784250
-2.783648
-2.783049
-2.778654
-2.778061
-2.777468
-2.776875
-2.776284
-2.775692
-2.775101
-2.774513
-2.773925
-2.773337
-2.769029
-2.768447
-2.767864
-2.767286
-2.766706
-2.766127
-2.765549
-2.764972
-2.764394
-2.763819
-2.759599
-2.759029
-2.758461
-2.757892
-2.757325
-2.756757
-2.756191
-2.755627
-2.755062
-2.754499
-2.850332
-2.849667
-2.849005
-2.848340
-2.847679
-2.847017
-2.846355
-2.845694
-2.845034
-2.844374
-2.839527
-2.838871
-2.838215
-2.837561
-2.836908
-2.836255
-2.835603
-2.834949
-2.834298
-2.833648
-2.828868
-2.828221
-2.827574
-2.826930
-2.826286
-2.825641
-2.824999
-2.824355
-2.823713
-2.823071
-2.818363
-2.817726
-2.817090
-2.816455
-2.815819
-2.815185
-2.814553
-2.813920
-2.813287
-2.812655
-2.808022
-2.807396
-2.806770
-2.806145
-2.805521
-2.804896
-2.804274
-2.803652
-2.803030
-2.802408
-2.797851
-2.797235
-2.796622
-2.796008
-2.795394
-2.794780
-2.794168
-2.793557
-2.792947
-2.792336
-2.787860
-2.787256
-2.786654
-2.786052
-2.785447
-2.784846
-2.784245
-2.783645
-2.783046
-2.782446
-2.778057
-2.777465
-2.776871
-2.776279
-2.775689
-2.775099
-2.774510
-2.773921
-2.773333
-2.772745
-2.768442
-2.767862
-2.767282
-2.766701
-2.766123
-2.765544
-2.764967
-2.764389
-2.763814