# vtk DataFile Version 3.0
PINN prediction t=11917.2412109375
ASCII
DATASET UNSTRUCTURED_GRID
POINTS 1000 float
0.000000 0.000000 0.000000
0.000000 0.000000 0.044444
0.000000 0.000000 0.088889
0.000000 0.000000 0.133333
0.000000 0.000000 0.177778
0.000000 0.000000 0.222222
0.000000 0.000000 0.266667
0.000000 0.000000 0.311111
0.000000 0.000000 0.355556
0.000000 0.000000 0.400000
0.000000 0.088889 0.000000
0.000000 0.088889 0.044444
0.000000 0.088889 0.088889
0.000000 0.088889 0.133333
0.000000 0.088889 0.177778
0.000000 0.088889 0.222222
0.000000 0.088889 0.266667
0.000000 0.088889 0.311111
0.000000 0.088889 0.355556
0.000000 0.088889 0.400000
0.000000 0.177778 0.000000
0.000000 0.177778 0.044444
0.000000 0.177778 0.088889
0.000000 0.177778 0.133333
0.000000 0.177778 0.177778
0.000000 0.177778 0.222222
0.000000 0.177778 0.266667
0.000000 0.177778 0.311111
0.000000 0.177778 0.355556
0.000000 0.177778 0.400000
0.000000 0.266667 0.000000
0.000000 0.266667 0.044444
0.000000 0.266667 0.088889
0.000000 0.266667 0.133333
0.000000 0.266667 0.177778
0.000000 0.266667 0.222222
0.000000 0.266667 0.266667
0.000000 0.266667 0.311111
0.000000 0.266667 0.355556
0.000000 0.266667 0.400000
0.000000 0.355556 0.000000
0.000000 0.355556 0.044444
0.000000 0.355556 0.088889
0.000000 0.355556 0.133333
0.000000 0.355556 0.177778
0.000000 0.355556 0.222222
0.000000 0.355556 0.266667
0.000000 0.355556 0.311111
0.000000 0.355556 0.355556
0.000000 0.355556 0.400000
0.000000 0.444444 0.000000
0.000000 0.444444 0.044444
0.000000 0.444444 0.088889
0.000000 0.444444 0.133333
0.000000 0.444444 0.177778
0.000000 0.444444 0.222222
0.000000 0.444444 0.266667
0.000000 0.444444 0.311111
0.000000 0.444444 0.355556
0.000000 0.444444 0.400000
0.000000 0.533333 0.000000
0.000000 0.533333 0.044444
0.000000 0.533333 0.088889
0.000000 0.533333 0.133333
0.000000 0.533333 0.177778
0.000000 0.533333 0.222222
0.000000 0.533333 0.266667
0.000000 0.533333 0.311111
0.000000 0.533333 0.355556
0.000000 0.533333 0.400000
0.000000 0.622222 0.000000
0.000000 0.622222 0.044444
0.000000 0.622222 0.088889
0.000000 0.622222 0.133333
0.000000 0.622222 0.177778
0.000000 0.622222 0.222222
0.000000 0.622222 0.266667
0.000000 0.622222 0.311111
0.000000 0.622222 0.355556
0.000000 0.622222 0.400000
0.000000 0.711111 0.000000
0.000000 0.711111 0.044444
0.000000 0.711111 0.088889
0.000000 0.711111 0.133333
0.000000 0.711111 0.177778
0.000000 0.711111 0.222222
0.000000 0.711111 0.266667
0.000000 0.711111 0.311111
0.000000 0.711111 0.355556
0.000000 0.711111 0.400000
0.000000 0.800000 0.000000
0.000000 0.800000 0.044444
0.000000 0.800000 0.088889
0.000000 0.800000 0.133333
0.000000 0.800000 0.177778
0.000000 0.800000 0.222222
0.000000 0.800000 0.266667
0.000000 0.800000 0.311111
0.000000 0.800000 0.355556
0.000000 0.800000 0.400000
0.044444 0.000000 0.000000
0.044444 0.000000 0.044444
0.044444 0.000000 0.088889
0.044444 0.000000 0.133333
0.044444 0.000000 0.177778
0.044444 0.000000 0.222222
0.044444 0.000000 0.266667
0.044444 0.000000 0.311111
0.044444 0.000000 0.355556
0.044444 0.000000 0.400000
0.044444 0.088889 0.000000
0.044444 0.088889 0.044444
0.044444 0.088889 0.088889
0.044444 0.088889 0.133333
0.044444 0.088889 0.177778
0.044444 0.088889 0.222222
0.044444 0.088889 0.266667
0.044444 0.088889 0.311111
0.044444 0.088889 0.355556
0.044444 0.088889 0.400000
0.044444 0.177778 0.000000
0.044444 0.177778 0.044444
0.044444 0.177778 0.088889
0.044444 0.177778 0.133333
0.044444 0.177778 0.177778
0.044444 0.177778 0.222222
0.044444 0.177778 0.266667
0.044444 0.177778 0.311111
0.044444 0.177778 0.355556
0.044444 0.177778 0.400000
0.044444 0.266667 0.000000
0.044444 0.266667 0.044444
0.044444 0.266667 0.088889
0.044444 0.266667 0.133333
0.044444 0.266667 0.177778
0.044444 0.266667 0.222222
0.044444 0.266667 0.266667
0.044444 0.266667 0.311111
0.044444 0.266667 0.355556
0.044444 0.266667 0.400000
0.044444 0.355556 0.000000
0.044444 0.355556 0.044444
0.044444 0.355556 0.088889
0.044444 0.355556 0.133333
0.044444 0.355556 0.177778
0.044444 0.355556 0.222222
0.044444 0.355556 0.266667
0.044444 0.355556 0.311111
0.044444 0.355556 0.355556
0.044444 0.355556 0.400000
0.044444 0.444444 0.000000
0.044444 0.444444 0.044444
0.044444 0.444444 0.088889
0.044444 0.444444 0.133333
0.044444 0.444444 0.177778
0.044444 0.444444 0.222222
0.044444 0.444444 0.266667
0.044444 0.444444 0.311111
0.044444 0.444444 0.355556
0.044444 0.444444 0.400000
0.044444 0.533333 0.000000
0.044444 0.533333 0.044444
0.044444 0.533333 0.088889
0.044444 0.533333 0.133333
0.044444 0.533333 0.177778
0.044444 0.533333 0.222222
0.044444 0.533333 0.266667
0.044444 0.533333 0.311111
0.044444 0.533333 0.355556
0.044444 0.533333 0.400000
0.044444 0.622222 0.000000
0.044444 0.622222 0.044444
0.044444 0.622222 0.088889
0.044444 0.622222 0.133333
0.044444 0.622222 0.177778
0.044444 0.622222 0.222222
0.044444 0.622222 0.266667
0.044444 0.622222 0.311111
0.044444 0.622222 0.355556
0.044444 0.622222 0.400000
0.044444 0.711111 0.000000
0.044444 0.711111 0.044444
0.044444 0.711111 0.088889
0.044444 0.711111 0.133333
0.044444 0.711111 0.177778
0.044444 0.711111 0.222222
0.044444 0.711111 0.266667
0.044444 0.711111 0.311111
0.044444 0.711111 0.355556
0.044444 0.711111 0.400000
0.044444 0.800000 0.000000
0.044444 0.800000 0.044444
0.044444 0.800000 0.088889
0.044444 0.800000 0.133333
0.044444 0.800000 0.177778
0.044444 0.800000 0.222222
0.044444 0.800000 0.266667
0.044444 0.800000 0.311111
0.044444 0.800000 0.355556
0.044444 0.800000 0.400000
0.088889 0.000000 0.000000
0.088889 0.000000 0.044444
0.088889 0.000000 0.088889
0.088889 0.000000 0.133333
0.088889 0.000000 0.177778
0.088889 0.000000 0.222222
0.088889 0.000000 0.266667
0.088889 0.000000 0.311111
0.088889 0.000000 0.355556
0.088889 0.000000 0.400000
0.088889 0.088889 0.000000
0.088889 0.088889 0.044444
0.088889 0.088889 0.088889
0.088889 0.088889 0.133333
0.088889 0.088889 0.177778
0.088889 0.088889 0.222222
0.088889 0.088889 0.266667
0.088889 0.088889 0.311111
0.088889 0.088889 0.355556
0.088889 0.088889 0.400000
0.088889 0.177778 0.000000
0.088889 0.177778 0.044444
0.088889 0.177778 0.088889
0.088889 0.177778 0.133333
0.088889 0.177778 0.177778
0.088889 0.177778 0.222222
0.088889 0.177778 0.266667
0.088889 0.177778 0.311111
0.088889 0.177778 0.355556
0.088889 0.177778 0.400000
0.088889 0.266667 0.000000
0.088889 0.266667 0.044444
0.088889 0.266667 0.088889
0.088889 0.266667 0.133333
0.088889 0.266667 0.177778
0.088889 0.266667 0.222222
0.088889 0.266667 0.266667
0.088889 0.266667 0.311111
0.088889 0.266667 0.355556
0.088889 0.266667 0.400000
0.088889 0.355556 0.000000
0.088889 0.355556 0.044444
0.088889 0.355556 0.088889
0.088889 0.355556 0.133333
0.088889 0.355556 0.177778
0.088889 0.355556 0.222222
0.088889 0.355556 0.266667
0.088889 0.355556 0.311111
0.088889 0.355556 0.355556
0.088889 0.355556 0.400000
0.088889 0.444444 0.000000
0.088889 0.444444 0.044444
0.088889 0.444444 0.088889
0.088889 0.444444 0.133333
0.088889 0.444444 0.177778
0.088889 0.444444 0.222222
0.088889 0.444444 0.266667
0.088889 0.444444 0.311111
0.088889 0.444444 0.355556
0.088889 0.444444 0.400000
0.088889 0.533333 0.000000
0.088889 0.533333 0.044444
0.088889 0.533333 0.088889
0.088889 0.533333 0.133333
0.088889 0.533333 0.177778
0.088889 0.533333 0.222222
0.088889 0.533333 0.266667
0.088889 0.533333 0.311111
0.088889 0.533333 0.355556
0.088889 0.533333 0.400000
0.088889 0.622222 0.000000
0.088889 0.622222 0.044444
0.088889 0.622222 0.088889
0.088889 0.622222 0.133333
0.088889 0.622222 0.177778
0.088889 0.622222 0.222222
0.088889 0.622222 0.266667
0.088889 0.622222 0.311111
0.088889 0.622222 0.355556
0.088889 0.622222 0.400000
0.088889 0.711111 0.000000
0.088889 0.711111 0.044444
0.088889 0.711111 0.088889
0.088889 0.711111 0.133333
0.088889 0.711111 0.177778
0.088889 0.711111 0.222222
0.088889 0.711111 0.266667
0.088889 0.711111 0.311111
0.088889 0.711111 0.355556
0.088889 0.711111 0.400000
0.088889 0.800000 0.000000
0.088889 0.800000 0.044444
0.088889 0.800000 0.088889
0.088889 0.800000 0.133333
0.088889 0.800000 0.177778
0.088889 0.800000 0.222222
0.088889 0.800000 0.266667
0.088889 0.800000 0.311111
0.088889 0.800000 0.355556
0.088889 0.800000 0.400000
0.133333 0.000000 0.000000
0.133333 0.000000 0.044444
0.133333 0.000000 0.088889
0.133333 0.000000 0.133333
0.133333 0.000000 0.177778
0.133333 0.000000 0.222222
0.133333 0.000000 0.266667
0.133333 0.000000 0.311111
0.133333 0.000000 0.355556
0.133333 0.000000 0.400000
0.133333 0.088889 0.000000
0.133333 0.088889 0.044444
0.133333 0.088889 0.088889
0.133333 0.088889 0.133333
0.133333 0.088889 0.177778
0.133333 0.088889 0.222222
0.133333 0.088889 0.266667
0.133333 0.088889 0.311111
0.133333 0.088889 0.355556
0.133333 0.088889 0.400000
0.133333 0.177778 0.000000
0.133333 0.177778 0.044444
0.133333 0.177778 0.088889
0.133333 0.177778 0.133333
0.133333 0.177778 0.177778
0.133333 0.177778 0.222222
0.133333 0.177778 0.266667
0.133333 0.177778 0.311111
0.133333 0.177778 0.355556
0.133333 0.177778 0.400000
0.133333 0.266667 0.000000
0.133333 0.266667 0.044444
0.133333 0.266667 0.088889
0.133333 0.266667 0.133333
0.133333 0.266667 0.177778
0.133333 0.266667 0.222222
0.133333 0.266667 0.266667
0.133333 0.266667 0.311111
0.133333 0.266667 0.355556
0.133333 0.266667 0.400000
0.133333 0.355556 0.000000
0.133333 0.355556 0.044444
0.133333 0.355556 0.088889
0.133333 0.355556 0.133333
0.133333 0.355556 0.177778
0.133333 0.355556 0.222222
0.133333 0.355556 0.266667
0.133333 0.355556 0.311111
0.133333 0.355556 0.355556
0.133333 0.355556 0.400000
0.133333 0.444444 0.000000
0.133333 0.444444 0.044444
0.133333 0.444444 0.088889
0.133333 0.444444 0.133333
0.133333 0.444444 0.177778
0.133333 0.444444 0.222222
0.133333 0.444444 0.266667
0.133333 0.444444 0.311111
0.133333 0.444444 0.355556
0.133333 0.444444 0.400000
0.133333 0.533333 0.000000
0.133333 0.533333 0.044444
0.133333 0.533333 0.088889
0.133333 0.533333 0.133333
0.133333 0.533333 0.177778
0.133333 0.533333 0.222222
[...]
POINT_DATA 1000
SCALARS Temperature float 1
LOOKUP_TABLE default
109.972778
109.995667
110.018646
110.041718
110.064545
110.087372
110.110046
110.132874
110.155457
110.178131
110.343903
110.366150
110.388153
110.410309
110.432312
110.454376
110.476349
110.498077
110.519989
110.541870
110.701508
110.722961
110.744324
110.765503
110.786743
110.807983
110.829132
110.850250
110.871185
110.892303
111.046051
111.066742
111.087250
111.107666
111.128082
111.148529
111.168976
111.189270
111.209503
111.229584
111.377838
111.397705
111.417419
111.437134
111.456726
111.476501
111.496063
111.515717
111.535187
111.554535
111.697174
111.716309
111.735199
111.754242
111.773102
111.792053
111.810944
111.829712
111.848480
111.867218
112.004303
112.022614
112.041046
112.059174
112.077393
112.095642
112.113739
112.131805
112.149902
112.167908
112.299774
112.317413
112.334991
112.352509
112.370087
112.387543
112.404938
112.422211
112.439697
112.456940
112.583679
112.600616
112.617584
112.634430
112.651276
112.668121
112.684875
112.701538
112.718140
112.734772
112.856598
112.872864
112.889160
112.905426
112.921600
112.937622
112.953796
112.969849
112.985931
113.001831
109.996063
110.019012
110.041901
110.064697
110.087555
110.110291
110.133118
110.155792
110.178345
110.200958
110.366364
110.388397
110.410614
110.432617
110.454620
110.476501
110.498413
110.520294
110.542084
110.563812
110.723175
110.744476
110.765717
110.786896
110.808197
110.829346
110.850372
110.871460
110.892487
110.913452
111.066956
111.087433
111.107910
111.128448
111.148743
111.169220
111.189423
111.209717
111.229889
111.250153
111.397858
111.417664
111.437347
111.457001
111.476715
111.496338
111.515930
111.535309
111.554779
111.574249
111.716400
111.735382
111.754364
111.773315
111.792358
111.811066
111.829834
111.848633
111.867401
111.886078
112.022797
112.041107
112.059448
112.077606
112.095764
112.113861
112.131989
112.150055
112.168030
112.186005
112.317505
112.335083
112.352753
112.370209
112.387604
112.405151
112.422516
112.439911
112.457153
112.474426
112.600891
112.617767
112.634644
112.651459
112.668304
112.685059
112.701691
112.718384
112.735016
112.751648
112.873077
112.889282
112.905548
112.921875
112.937897
112.953949
112.970032
112.986053
113.002045
113.017975
110.019196
110.042175
110.065033
110.087799
110.110565
110.133331
110.156006
110.178589
110.201080
110.223663
110.388733
110.410767
110.432861
110.454803
110.476837
110.498596
110.520508
110.542389
110.564056
110.585754
110.744843
110.765991
110.787140
110.808380
110.829590
110.850586
110.871643
110.892639
110.913605
110.934479
111.087616
111.108185
111.128662
111.149017
111.169342
111.189667
111.209930
111.230133
111.250336
111.270508
111.417847
111.437500
111.457153
111.476959
111.496521
111.516083
111.535583
111.554962
111.574463
111.593903
111.735718
111.754608
111.773499
111.792450
111.811218
111.830048
111.848816
111.867645
111.886261
111.904846
112.041290
112.059631
112.077789
112.095978
112.114166
112.132202
112.150269
112.168182
112.186157
112.204163
112.335297
112.352875
112.370453
112.387909
112.405243
112.422699
112.439972
112.457336
112.474579
112.491913
112.618011
112.634857
112.651581
112.668457
112.685211
112.701904
112.718506
112.735199
112.751801
112.768280
112.889557
112.905731
112.922028
112.938019
112.954132
112.970123
112.986176
113.002136
113.018158
113.034027
110.042389
110.065186
110.088043
110.110870
110.133545
110.156219
110.178802
110.201385
110.223938
110.246338
110.411102
110.433075
110.454987
110.476959
110.498871
110.520782
110.542480
110.564301
110.585968
110.607544
110.766205
110.787415
110.808624
110.829773
110.850891
110.871948
110.892944
110.913818
110.934753
110.955536
111.108368
111.128815
111.149200
111.169586
111.189819
111.210144
111.230377
111.250519
111.270691
111.290680
111.437805
111.457458
111.477173
111.496674
111.516205
111.535767
111.555176
111.574615
111.594055
111.613251
111.754791
111.773773
111.792603
111.811493
111.830292
111.848969
111.867767
111.886444
111.905029
111.923767
112.059814
112.078064
112.096191
112.114349
112.132477
112.150421
112.168457
112.186462
112.204315
112.222198
112.353088
112.370575
112.388062
112.405457
112.422974
112.440186
112.457489
112.474792
112.491974
112.509125
112.635040
112.651764
112.668610
112.685394
112.702057
112.718781
112.735443
112.752014
112.768494
112.785095
112.906036
112.922211
112.938202
112.954315
112.970398
112.986298
113.002319
113.018219
113.034241
113.050049
110.065491
110.088287
110.111145
110.133728
110.156464
110.179108
110.201691
110.224152
110.246613
110.269012
110.433319
110.455170
110.477173
110.499054
110.521027
110.542725
110.564423
110.586182
110.607880
110.629395
110.787689
110.808990
110.830109
110.851105
110.872284
110.893188
110.914062
110.934906
110.955780
110.976715
111.129059
111.149414
111.169861
111.190033
111.210419
111.230560
111.250702
111.270844
111.290924
111.310944
111.457672
111.477386
111.496887
111.516388
111.535950
111.555450
111.574860
111.594147
111.613434
111.632874
111.773895
111.792816
111.811737
111.830536
111.849243
111.867981
111.886658
111.905304
111.923889
111.942444
112.078217
112.096497
112.114502
112.132599
112.150665
112.168640
112.186493
112.204498
112.222321
112.240143
112.370758
112.388367
112.405670
112.423096
112.440460
112.457672
112.474854
112.492157
112.509277
112.526489
112.652039
112.668793
112.685516
112.702301
112.718994
112.735535
112.752228
112.768677
112.785187
112.801697
112.922302
112.938385
112.954529
112.970490
112.986481
113.002502
113.018463
113.034363
113.050201
113.066071
110.088593
110.111328
110.133972
110.156769
110.179352
110.201874
110.224426
110.246857
110.269226
110.291595
110.455444
110.477478
110.499359
110.521210
110.542938
110.564728
110.586365
110.608063
110.629608
110.651154
110.809174
110.830292
110.851349
110.872406
110.893341
110.914215
110.935211
110.955994
110.976837
110.997528
111.149750
111.170135
111.190277
111.210632
111.230865
111.250854
111.271088
111.291168
111.311188
111.331177
111.477631
111.497131
111.516663
111.536285
111.555664
111.575043
111.594452
111.613678
111.632965
111.652313
111.793060
111.811890
111.830719
111.849487
111.868164
111.886871
111.905487
111.924042
111.942596
111.961151
112.096558
112.114716
112.132843
112.150848
112.168854
112.186676
112.204712
112.222504
112.240387
112.258209
112.388519
112.405914
112.423309
112.440582
112.457855
112.475067
112.492401
112.509583
112.526703
112.543793
112.669098
112.685730
112.702484
112.719208
112.735626
112.752441
112.768860
112.785309
112.801910
112.818298
112.938568
112.954681
112.970673
112.986664
113.002747
113.018585
113.034546
113.050385
113.066223
113.081940
110.111542
110.134277
110.156921
110.179596
110.202087
110.224640
110.247162
110.269470
110.291840
110.314117
110.477692
110.499603
110.521423
110.543213
110.564911
110.586578
110.608337
110.629852
110.651337
110.672882
110.830536
110.851624
110.872528
110.893646
110.914581
110.935394
110.956268
110.977142
110.997803
111.018494
111.170258
111.190552
111.210785
111.231018
111.251190
111.271271
111.291351
111.311371
111.331299
111.351318
111.497223
111.516937
111.536377
111.555878
111.575287
111.594604
111.613922
111.633087
111.652466
111.671600
111.812134
111.830963
111.849701
111.868378
111.887054
111.905731
111.924286
111.942749
111.961273
111.979706
112.114868
112.132996
112.151001
112.168915
112.186951
112.204803
112.222717
112.240570
112.258362
112.276154
112.406036
112.423492
112.440765
112.458099
112.475250
112.492523
112.509735
112.526886
112.543976
112.561005
112.685883
112.702637
112.719299
112.735962
112.752533
112.769073
112.785583
112.802002
112.818451
112.834869
112.954742
112.970825
112.986786
113.002808
113.018768
113.034729
113.050629
113.066376
113.082123
113.097839
110.134491
110.157135
110.179749
110.202362
110.224884
110.247284
110.269745
110.292114
110.314362
110.336731
110.499847
110.521637
110.543488
110.565094
110.586884
110.608612
110.630035
110.651581
110.673096
110.694580
110.851746
110.872772
110.893860
110.914764
110.935577
110.956573
110.977203
110.998077
111.018768
111.039337
111.190735
111.210938
111.231171
111.251373
111.271393
111.291595
111.311523
111.331543
111.351532
111.371429
111.517151
111.536621
111.556000
111.575470
111.594849
111.614166
111.633301
111.652618
111.671753
111.690887
111.831146
111.849884
111.868591
111.887238
111.905823
111.924469
111.943024
111.961517
111.979919
111.998291
112.133209
112.151215
112.169159
112.187073
112.205048
112.222961
112.240784
112.258606
112.276306
112.293945
112.423676
112.440948
112.458252
112.475494
112.492767
112.509888
112.527130
112.544159
112.561218
112.578156
112.702789
112.719452
112.736053
112.752686
112.769226
112.785706
112.802277
112.818634
112.834991
112.851349
112.970978
112.986969
113.003021
113.018890
113.034790
113.050751
113.066528
113.082336
113.098022
113.113800
110.157440
110.180023
110.202545
110.225098
110.247528
110.269989
110.292328
110.314545
110.336884
110.359131
110.521790
110.543640
110.565430
110.587128
110.608734
110.630371
110.651917
110.673309
110.694855
110.716217
110.873047
110.894012
110.914948
110.935883
110.956665
110.977509
110.998260
111.018951
111.039551
111.060242
111.211212
111.231415
111.251648
111.271698
111.291748
111.311798
111.331818
111.351685
111.371582
111.391479
111.536835
111.556183
111.575653
111.595123
111.614288
111.633514
111.652832
111.671967
111.691101
111.710266
111.850098
111.868774
111.887543
111.906036
111.924622
111.943207
111.961761
111.980072
111.998535
112.016846
112.151398
112.169342
112.187256
112.205292
112.223083
112.240997
112.258728
112.276459
112.294159
112.311798
112.441132
112.458435
112.475677
112.492889
112.510040
112.527252
112.544281
112.561401
112.578369
112.595367
112.719666
112.736298
112.752838
112.769409
112.785858
112.802399
112.818848
112.835175
112.851532
112.867798
112.987122
113.003113
113.019104
113.035065
113.050934
113.066742
113.082489
113.098236
113.113861
113.129608
110.180267
110.202850
110.225372
110.247833
110.270172
110.292572
110.314850
110.337189
110.359344
110.381470
110.543854
110.565674
110.587311
110.608978
110.630493
110.652130
110.673615
110.695038
110.716461
110.737762
110.894287
110.915222
110.936066
110.956818
110.977722
110.998413
111.019226
111.039886
111.060486
111.081024
111.231628
111.251801
111.271912
111.291962
111.311951
111.331970
111.351898
111.371857
111.391693
111.411469
111.556366
111.575775
111.595306
111.614410
111.633759
111.653076
111.672272
111.691315
111.710419
111.729462
111.868988
111.887665
111.906281
111.924835
111.943390
111.961945
111.980316
111.998688
112.016998
112.035339
112.169556
112.187531
112.205536
112.223358
112.241150
112.258942
112.276703
112.294342
112.311981
112.329620
112.458557
112.475922
112.493103
112.510223
112.527374
112.544464
112.561615
112.578644
112.595520
112.612549
112.736420
112.753052
112.769592
112.786041
112.802551
112.819000
112.835358
112.851746
112.867981
112.884216
113.003387
113.019287
113.035248
113.051056
113.066864
113.082672
113.098450
113.114075
113.129669
113.145355

SCALARS Alpha float 1
LOOKUP_TABLE default
-2.601492
-2.601206
-2.600920
-2.600636
-2.600353
-2.600069
-2.599787
-2.599504
-2.599223
-2.598941
-2.596884
-2.596609
-2.596335
-2.596061
-2.595786
-2.595514
-2.595242
-2.594970
-2.594700
-2.594429
-2.592448
-2.592182
-2.591918
-2.591653
-2.591391
-2.591128
-2.590865
-2.590604
-2.590342
-2.590083
-2.588175
-2.587921
-2.587665
-2.587410
-2.587157
-2.586904
-2.586653
-2.586401
-2.586149
-2.585899
-2.584064
-2.583818
-2.583572
-2.583330
-2.583085
-2.582841
-2.582599
-2.582357
-2.582114
-2.581875
-2.580109
-2.579872
-2.579638
-2.579403
-2.579168
-2.578935
-2.578700
-2.578468
-2.578236
-2.578003
-2.576306
-2.576081
-2.575853
-2.575627
-2.575402
-2.575176
-2.574952
-2.574729
-2.574506
-2.574281
-2.572651
-2.572433
-2.572215
-2.571999
-2.571781
-2.571565
-2.571350
-2.571136
-2.570921
-2.570706
-2.569139
-2.568930
-2.568720
-2.568512
-2.568305
-2.568096
-2.567888
-2.567682
-2.567476
-2.567271
-2.565767
-2.565565
-2.565363
-2.565163
-2.564964
-2.564764
-2.564564
-2.564366
-2.564168
-2.563972
-2.601203
-2.600918
-2.600633
-2.600349
-2.600067
-2.599783
-2.599501
-2.599219
-2.598939
-2.598659
-2.596607
-2.596332
-2.596058
-2.595784
-2.595511
-2.595239
-2.594968
-2.594697
-2.594426
-2.594157
-2.592179
-2.591914
-2.591650
-2.591386
-2.591125
-2.590863
-2.590600
-2.590340
-2.590079
-2.589819
-2.587918
-2.587662
-2.587408
-2.587155
-2.586903
-2.586650
-2.586399
-2.586147
-2.585896
-2.585646
-2.583816
-2.583571
-2.583327
-2.583082
-2.582838
-2.582596
-2.582354
-2.582113
-2.581872
-2.581632
-2.579870
-2.579635
-2.579400
-2.579166
-2.578931
-2.578697
-2.578465
-2.578233
-2.578002
-2.577770
-2.576078
-2.575851
-2.575625
-2.575399
-2.575174
-2.574950
-2.574727
-2.574504
-2.574280
-2.574059
-2.572432
-2.572212
-2.571997
-2.571780
-2.571563
-2.571349
-2.571133
-2.570918
-2.570704
-2.570492
-2.568928
-2.568718
-2.568509
-2.568302
-2.568095
-2.567886
-2.567680
-2.567474
-2.567269
-2.567064
-2.565562
-2.565362
-2.565162
-2.564961
-2.564763
-2.564562
-2.564364
-2.564168
-2.563970
-2.563772
-2.600915
-2.600630
-2.600346
-2.600063
-2.599781
-2.599498
-2.599217
-2.598936
-2.598655
-2.598377
-2.596329
-2.596054
-2.595781
-2.595508
-2.595236
-2.594965
-2.594693
-2.594422
-2.594152
-2.593885
-2.591912
-2.591648
-2.591383
-2.591123
-2.590860
-2.590598
-2.590337
-2.590078
-2.589818
-2.589560
-2.587659
-2.587405
-2.587152
-2.586900
-2.586647
-2.586396
-2.586144
-2.585892
-2.585644
-2.585394
-2.583568
-2.583324
-2.583080
-2.582836
-2.582594
-2.582352
-2.582111
-2.581869
-2.581630
-2.581388
-2.579633
-2.579397
-2.579162
-2.578930
-2.578696
-2.578464
-2.578231
-2.577998
-2.577768
-2.577537
-2.575848
-2.575622
-2.575397
-2.575172
-2.574946
-2.574724
-2.574502
-2.574277
-2.574056
-2.573834
-2.572211
-2.571995
-2.571778
-2.571561
-2.571346
-2.571131
-2.570916
-2.570702
-2.570489
-2.570275
-2.568716
-2.568506
-2.568301
-2.568091
-2.567885
-2.567678
-2.567472
-2.567267
-2.567060
-2.566856
-2.565359
-2.565159
-2.564960
-2.564759
-2.564560
-2.564362
-2.564165
-2.563967
-2.563771
-2.563574
-2.600627
-2.600343
-2.600060
-2.599776
-2.599495
-2.599214
-2.598933
-2.598653
-2.598373
-2.598095
-2.596051
-2.595778
-2.595506
-2.595233
-2.594962
-2.594690
-2.594420
-2.594151
-2.593881
-2.593613
-2.591645
-2.591381
-2.591120
-2.590857
-2.590595
-2.590334
-2.590075
-2.589814
-2.589556
-2.589296
-2.587402
-2.587150
-2.586896
-2.586644
-2.586393
-2.586142
-2.585891
-2.585641
-2.585392
-2.585143
-2.583321
-2.583077
-2.582834
-2.582592
-2.582349
-2.582108
-2.581867
-2.581627
-2.581386
-2.581147
-2.579394
-2.579160
-2.578927
-2.578693
-2.578461
-2.578228
-2.577996
-2.577765
-2.577535
-2.577304
-2.575620
-2.575394
-2.575169
-2.574944
-2.574722
-2.574499
-2.574275
-2.574053
-2.573831
-2.573612
-2.571993
-2.571774
-2.571558
-2.571343
-2.571129
-2.570914
-2.570700
-2.570487
-2.570273
-2.570062
-2.568506
-2.568298
-2.568089
-2.567883
-2.567676
-2.567470
-2.567264
-2.567058
-2.566855
-2.566652
-2.565157
-2.564957
-2.564758
-2.564559
-2.564360
-2.564164
-2.563966
-2.563768
-2.563572
-2.563376
-2.600341
-2.600057
-2.599774
-2.599493
-2.599212
-2.598930
-2.598650
-2.598369
-2.598092
-2.597814
-2.595776
-2.595503
-2.595231
-2.594959
-2.594688
-2.594417
-2.594148
-2.593879
-2.593609
-2.593341
-2.591378
-2.591117
-2.590854
-2.590594
-2.590331
-2.590072
-2.589813
-2.589553
-2.589293
-2.589036
-2.587146
-2.586895
-2.586642
-2.586391
-2.586139
-2.585889
-2.585639
-2.585389
-2.585140
-2.584893
-2.583075
-2.582831
-2.582588
-2.582346
-2.582104
-2.581864
-2.581625
-2.581385
-2.581145
-2.580906
-2.579157
-2.578924
-2.578691
-2.578458
-2.578225
-2.577993
-2.577763
-2.577533
-2.577302
-2.577073
-2.575393
-2.575167
-2.574943
-2.574718
-2.574496
-2.574274
-2.574050
-2.573829
-2.573608
-2.573388
-2.571774
-2.571555
-2.571342
-2.571127
-2.570911
-2.570697
-2.570483
-2.570271
-2.570060
-2.569847
-2.568296
-2.568086
-2.567880
-2.567673
-2.567467
-2.567262
-2.567056
-2.566854
-2.566650
-2.566446
-2.564955
-2.564755
-2.564557
-2.564358
-2.564160
-2.563964
-2.563766
-2.563569
-2.563374
-2.563179
-2.600053
-2.599771
-2.599489
-2.599207
-2.598927
-2.598647
-2.598367
-2.598089
-2.597811
-2.597533
-2.595500
-2.595228
-2.594956
-2.594685
-2.594414
-2.594144
-2.593875
-2.593607
-2.593338
-2.593072
-2.591113
-2.590852
-2.590590
-2.590328
-2.590070
-2.589809
-2.589549
-2.589291
-2.589034
-2.588775
-2.586892
-2.586639
-2.586388
-2.586137
-2.585886
-2.585636
-2.585387
-2.585137
-2.584890
-2.584641
-2.582828
-2.582586
-2.582344
-2.582103
-2.581861
-2.581622
-2.581381
-2.581143
-2.580905
-2.580666
-2.578922
-2.578689
-2.578455
-2.578223
-2.577990
-2.577761
-2.577529
-2.577300
-2.577070
-2.576841
-2.575165
-2.574941
-2.574717
-2.574493
-2.574271
-2.574048
-2.573827
-2.573606
-2.573385
-2.573165
-2.571555
-2.571339
-2.571125
-2.570911
-2.570695
-2.570482
-2.570268
-2.570056
-2.569845
-2.569633
-2.568085
-2.567879
-2.567672
-2.567466
-2.567260
-2.567054
-2.566851
-2.566648
-2.566443
-2.566240
-2.564754
-2.564555
-2.564356
-2.564158
-2.563962
-2.563763
-2.563568
-2.563372
-2.563177
-2.562982
-2.599768
-2.599485
-2.599205
-2.598924
-2.598644
-2.598365
-2.598086
-2.597807
-2.597530
-2.597253
-2.595224
-2.594953
-2.594681
-2.594411
-2.594143
-2.593874
-2.593604
-2.593335
-2.593071
-2.592803
-2.590849
-2.590587
-2.590325
-2.590065
-2.589806
-2.589548
-2.589288
-2.589031
-2.588773
-2.588518
-2.586637
-2.586386
-2.586134
-2.585883
-2.585634
-2.585384
-2.585135
-2.584888
-2.584639
-2.584393
-2.582584
-2.582341
-2.582100
-2.581860
-2.581620
-2.581379
-2.581140
-2.580900
-2.580663
-2.580426
-2.578686
-2.578453
-2.578221
-2.577990
-2.577759
-2.577526
-2.577297
-2.577068
-2.576839
-2.576611
-2.574939
-2.574715
-2.574492
-2.574268
-2.574045
-2.573825
-2.573603
-2.573383
-2.573162
-2.572944
-2.571337
-2.571121
-2.570907
-2.570693
-2.570480
-2.570267
-2.570055
-2.569843
-2.569632
-2.569420
-2.567875
-2.567668
-2.567464
-2.567258
-2.567053
-2.566848
-2.566645
-2.566440
-2.566239
-2.566034
-2.564553
-2.564354
-2.564157
-2.563960
-2.563761
-2.563565
-2.563370
-2.563174
-2.562979
-2.562785
-2.599483
-2.599202
-2.598922
-2.598641
-2.598362
-2.598083
-2.597804
-2.597529
-2.597251
-2.596974
-2.594949
-2.594679
-2.594408
-2.594139
-2.593871
-2.593601
-2.593333
-2.593067
-2.592799
-2.592534
-2.590584
-2.590324
-2.590063
-2.589803
-2.589544
-2.589285
-2.589028
-2.588770
-2.588515
-2.588258
-2.586383
-2.586132
-2.585881
-2.585630
-2.585381
-2.585132
-2.584884
-2.584637
-2.584390
-2.584143
-2.582340
-2.582098
-2.581856
-2.581616
-2.581376
-2.581137
-2.580899
-2.580660
-2.580422
-2.580186
-2.578450
-2.578218
-2.577987
-2.577757
-2.577525
-2.577295
-2.577065
-2.576837
-2.576608
-2.576381
-2.574713
-2.574489
-2.574266
-2.574044
-2.573823
-2.573602
-2.573381
-2.573160
-2.572941
-2.572722
-2.571120
-2.570904
-2.570692
-2.570478
-2.570265
-2.570053
-2.569841
-2.569629
-2.569417
-2.569207
-2.567667
-2.567461
-2.567255
-2.567050
-2.566847
-2.566643
-2.566438
-2.566235
-2.566033
-2.565831
-2.564352
-2.564154
-2.563957
-2.563760
-2.563564
-2.563368
-2.563171
-2.562978
-2.562783
-2.562590
-2.599198
-2.598919
-2.598638
-2.598360
-2.598080
-2.597801
-2.597524
-2.597249
-2.596972
-2.596695
-2.594676
-2.594406
-2.594136
-2.593867
-2.593598
-2.593330
-2.593063
-2.592797
-2.592530
-2.592265
-2.590321
-2.590060
-2.589801
-2.589542
-2.589283
-2.589025
-2.588768
-2.588511
-2.588255
-2.588000
-2.586129
-2.585877
-2.585629
-2.585379
-2.585129
-2.584882
-2.584634
-2.584389
-2.584140
-2.583897
-2.582095
-2.581854
-2.581615
-2.581373
-2.581135
-2.580895
-2.580658
-2.580420
-2.580183
-2.579948
-2.578217
-2.577985
-2.577754
-2.577523
-2.577293
-2.577063
-2.576834
-2.576605
-2.576378
-2.576152
-2.574487
-2.574263
-2.574041
-2.573820
-2.573599
-2.573378
-2.573158
-2.572939
-2.572720
-2.572501
-2.570903
-2.570689
-2.570475
-2.570262
-2.570050
-2.569839
-2.569627
-2.569415
-2.569204
-2.568996
-2.567459
-2.567252
-2.567048
-2.566844
-2.566640
-2.566436
-2.566233
-2.566031
-2.565829