# vtk DataFile Version 3.0
PINN prediction t=26813.79296875
ASCII
DATASET UNSTRUCTURED_GRID
POINTS 1000 float
0.000000 0.000000 0.000000
0.000000 0.000000 0.044444
0.000000 0.000000 0.088889
0.000000 0.000000 0.133333
0.000000 0.000000 0.177778
0.000000 0.000000 0.222222
0.000000 0.000000 0.266667
0.000000 0.000000 0.311111
0.000000 0.000000 0.355556
0.000000 0.000000 0.400000
0.000000 0.088889 0.000000
0.000000 0.088889 0.044444
0.000000 0.088889 0.088889
0.000000 0.088889 0.133333
0.000000 0.088889 0.177778
0.000000 0.088889 0.222222
0.000000 0.088889 0.266667
0.000000 0.088889 0.311111
0.000000 0.088889 0.355556
0.000000 0.088889 0.400000
0.000000 0.177778 0.000000
0.000000 0.177778 0.044444
0.000000 0.177778 0.088889
0.000000 0.177778 0.133333
0.000000 0.177778 0.177778
0.000000 0.177778 0.222222
0.000000 0.177778 0.266667
0.000000 0.177778 0.311111
0.000000 0.177778 0.355556
0.000000 0.177778 0.400000
0.000000 0.266667 0.000000
0.000000 0.266667 0.044444
0.000000 0.266667 0.088889
0.000000 0.266667 0.133333
0.000000 0.266667 0.177778
0.000000 0.266667 0.222222
0.000000 0.266667 0.266667
0.000000 0.266667 0.311111
0.000000 0.266667 0.355556
0.000000 0.266667 0.400000
0.000000 0.355556 0.000000
0.000000 0.355556 0.044444
0.000000 0.355556 0.088889
0.000000 0.355556 0.133333
0.000000 0.355556 0.177778
0.000000 0.355556 0.222222
0.000000 0.355556 0.266667
0.000000 0.355556 0.311111
0.000000 0.355556 0.355556
0.000000 0.355556 0.400000
0.000000 0.444444 0.000000
0.000000 0.444444 0.044444
0.000000 0.444444 0.088889
0.000000 0.444444 0.133333
0.000000 0.444444 0.177778
0.000000 0.444444 0.222222
0.000000 0.444444 0.266667
0.000000 0.444444 0.311111
0.000000 0.444444 0.355556
0.000000 0.444444 0.400000
0.000000 0.533333 0.000000
0.000000 0.533333 0.044444
0.000000 0.533333 0.088889
0.000000 0.533333 0.133333
0.000000 0.533333 0.177778
0.000000 0.533333 0.222222
0.000000 0.533333 0.266667
0.000000 0.533333 0.311111
0.000000 0.533333 0.355556
0.000000 0.533333 0.400000
0.000000 0.622222 0.000000
0.000000 0.622222 0.044444
0.000000 0.622222 0.088889
0.000000 0.622222 0.133333
0.000000 0.622222 0.177778
0.000000 0.622222 0.222222
0.000000 0.622222 0.266667
0.000000 0.622222 0.311111
0.000000 0.622222 0.355556
0.000000 0.622222 0.400000
0.000000 0.711111 0.000000
0.000000 0.711111 0.044444
0.000000 0.711111 0.088889
0.000000 0.711111 0.133333
0.000000 0.711111 0.177778
0.000000 0.711111 0.222222
0.000000 0.711111 0.266667
0.000000 0.711111 0.311111
0.000000 0.711111 0.355556
0.000000 0.711111 0.400000
0.000000 0.800000 0.000000
0.000000 0.800000 0.044444
0.000000 0.800000 0.088889
0.000000 0.800000 0.133333
0.000000 0.800000 0.177778
0.000000 0.800000 0.222222
0.000000 0.800000 0.266667
0.000000 0.800000 0.311111
0.000000 0.800000 0.355556
0.000000 0.800000 0.400000
0.044444 0.000000 0.000000
0.044444 0.000000 0.044444
0.044444 0.000000 0.088889
0.044444 0.000000 0.133333
0.044444 0.000000 0.177778
0.044444 0.000000 0.222222
0.044444 0.000000 0.266667
0.044444 0.000000 0.311111
0.044444 0.000000 0.355556
0.044444 0.000000 0.400000
0.044444 0.088889 0.000000
0.044444 0.088889 0.044444
0.044444 0.088889 0.088889
0.044444 0.088889 0.133333
0.044444 0.088889 0.177778
0.044444 0.088889 0.222222
0.044444 0.088889 0.266667
0.044444 0.088889 0.311111
0.044444 0.088889 0.355556
0.044444 0.088889 0.400000
0.044444 0.177778 0.000000
0.044444 0.177778 0.044444
0.044444 0.177778 0.088889
0.044444 0.177778 0.133333
0.044444 0.177778 0.177778
0.044444 0.177778 0.222222
0.044444 0.177778 0.266667
0.044444 0.177778 0.311111
0.044444 0.177778 0.355556
0.044444 0.177778 0.400000
0.044444 0.266667 0.000000
0.044444 0.266667 0.044444
0.044444 0.266667 0.088889
0.044444 0.266667 0.133333
0.044444 0.266667 0.177778
0.044444 0.266667 0.222222
0.044444 0.266667 0.266667
0.044444 0.266667 0.311111
0.044444 0.266667 0.355556
0.044444 0.266667 0.400000
0.044444 0.355556 0.000000
0.044444 0.355556 0.044444
0.044444 0.355556 0.088889
0.044444 0.355556 0.133333
0.044444 0.355556 0.177778
0.044444 0.355556 0.222222
0.044444 0.355556 0.266667
0.044444 0.355556 0.311111
0.044444 0.355556 0.355556
0.044444 0.355556 0.400000
0.044444 0.444444 0.000000
0.044444 0.444444 0.044444
0.044444 0.444444 0.088889
0.044444 0.444444 0.133333
0.044444 0.444444 0.177778
0.044444 0.444444 0.222222
0.044444 0.444444 0.266667
0.044444 0.444444 0.311111
0.044444 0.444444 0.355556
0.044444 0.444444 0.400000
0.044444 0.533333 0.000000
0.044444 0.533333 0.044444
0.044444 0.533333 0.088889
0.044444 0.533333 0.133333
0.044444 0.533333 0.177778
0.044444 0.533333 0.222222
0.044444 0.533333 0.266667
0.044444 0.533333 0.311111
0.044444 0.533333 0.355556
0.044444 0.533333 0.400000
0.044444 0.622222 0.000000
0.044444 0.622222 0.044444
0.044444 0.622222 0.088889
0.044444 0.622222 0.133333
0.044444 0.622222 0.177778
0.044444 0.622222 0.222222
0.044444 0.622222 0.266667
0.044444 0.622222 0.311111
0.044444 0.622222 0.355556
0.044444 0.622222 0.400000
0.044444 0.711111 0.000000
0.044444 0.711111 0.044444
0.044444 0.711111 0.088889
0.044444 0.711111 0.133333
0.044444 0.711111 0.177778
0.044444 0.711111 0.222222
0.044444 0.711111 0.266667
0.044444 0.711111 0.311111
0.044444 0.711111 0.355556
0.044444 0.711111 0.400000
0.044444 0.800000 0.000000
0.044444 0.800000 0.044444
0.044444 0.800000 0.088889
0.044444 0.800000 0.133333
0.044444 0.800000 0.177778
0.044444 0.800000 0.222222
0.044444 0.800000 0.266667
0.044444 0.800000 0.311111
0.044444 0.800000 0.355556
0.044444 0.800000 0.400000
0.088889 0.000000 0.000000
0.088889 0.000000 0.044444
0.088889 0.000000 0.088889
0.088889 0.000000 0.133333
0.088889 0.000000 0.177778
0.088889 0.000000 0.222222
0.088889 0.000000 0.266667
0.088889 0.000000 0.311111
0.088889 0.000000 0.355556
0.088889 0.000000 0.400000
0.088889 0.088889 0.000000
0.088889 0.088889 0.044444
0.088889 0.088889 0.088889
0.088889 0.088889 0.133333
0.088889 0.088889 0.177778
0.088889 0.088889 0.222222
0.088889 0.088889 0.266667
0.088889 0.088889 0.311111
0.088889 0.088889 0.355556
0.088889 0.088889 0.400000
0.088889 0.177778 0.000000
0.088889 0.177778 0.044444
0.088889 0.177778 0.088889
0.088889 0.177778 0.133333
0.088889 0.177778 0.177778
0.088889 0.177778 0.222222
0.088889 0.177778 0.266667
0.088889 0.177778 0.311111
0.088889 0.177778 0.355556
0.088889 0.177778 0.400000
0.088889 0.266667 0.000000
0.088889 0.266667 0.044444
0.088889 0.266667 0.088889
0.088889 0.266667 0.133333
0.088889 0.266667 0.177778
0.088889 0.266667 0.222222
0.088889 0.266667 0.266667
0.088889 0.266667 0.311111
0.088889 0.266667 0.355556
0.088889 0.266667 0.400000
0.088889 0.355556 0.000000
0.088889 0.355556 0.044444
0.088889 0.355556 0.088889
0.088889 0.355556 0.133333
0.088889 0.355556 0.177778
0.088889 0.355556 0.222222
0.088889 0.355556 0.266667
0.088889 0.355556 0.311111
0.088889 0.355556 0.355556
0.088889 0.355556 0.400000
0.088889 0.444444 0.000000
0.088889 0.444444 0.044444
0.088889 0.444444 0.088889
0.088889 0.444444 0.133333
0.088889 0.444444 0.177778
0.088889 0.444444 0.222222
0.088889 0.444444 0.266667
0.088889 0.444444 0.311111
0.088889 0.444444 0.355556
0.088889 0.444444 0.400000
0.088889 0.533333 0.000000
0.088889 0.533333 0.044444
0.088889 0.533333 0.088889
0.088889 0.533333 0.133333
0.088889 0.533333 0.177778
0.088889 0.533333 0.222222
0.088889 0.533333 0.266667
0.088889 0.533333 0.311111
0.088889 0.533333 0.355556
0.088889 0.533333 0.400000
0.088889 0.622222 0.000000
0.088889 0.622222 0.044444
0.088889 0.622222 0.088889
0.088889 0.622222 0.133333
0.088889 0.622222 0.177778
0.088889 0.622222 0.222222
0.088889 0.622222 0.266667
0.088889 0.622222 0.311111
0.088889 0.622222 0.355556
0.088889 0.622222 0.400000
0.088889 0.711111 0.000000
0.088889 0.711111 0.044444
0.088889 0.711111 0.088889
0.088889 0.711111 0.133333
0.088889 0.711111 0.177778
0.088889 0.711111 0.222222
0.088889 0.711111 0.266667
0.088889 0.711111 0.311111
0.088889 0.711111 0.355556
0.088889 0.711111 0.400000
0.088889 0.800000 0.000000
0.088889 0.800000 0.044444
0.088889 0.800000 0.088889
0.088889 0.800000 0.133333
0.088889 0.800000 0.177778
0.088889 0.800000 0.222222
0.088889 0.800000 0.266667
0.088889 0.800000 0.311111
0.088889 0.800000 0.355556
0.088889 0.800000 0.400000
0.133333 0.000000 0.000000
0.133333 0.000000 0.044444
0.133333 0.000000 0.088889
0.133333 0.000000 0.133333
0.133333 0.000000 0.177778
0.133333 0.000000 0.222222
0.133333 0.000000 0.266667
0.133333 0.000000 0.311111
0.133333 0.000000 0.355556
0.133333 0.000000 0.400000
0.133333 0.088889 0.000000
0.133333 0.088889 0.044444
0.133333 0.088889 0.088889
0.133333 0.088889 0.133333
0.133333 0.088889 0.177778
0.133333 0.088889 0.222222
0.133333 0.088889 0.266667
0.133333 0.088889 0.311111
0.133333 0.088889 0.355556
0.133333 0.088889 0.400000
0.133333 0.177778 0.000000
0.133333 0.177778 0.044444
0.133333 0.177778 0.088889
0.133333 0.177778 0.133333
0.133333 0.177778 0.177778
0.133333 0.177778 0.222222
0.133333 0.177778 0.266667
0.133333 0.177778 0.311111
0.133333 0.177778 0.355556
0.133333 0.177778 0.400000
0.133333 0.266667 0.000000
0.133333 0.266667 0.044444
0.133333 0.266667 0.088889
0.133333 0.266667 0.133333
0.133333 0.266667 0.177778
0.133333 0.266667 0.222222
0.133333 0.266667 0.266667
0.133333 0.266667 0.311111
0.133333 0.266667 0.355556
0.133333 0.266667 0.400000
0.133333 0.355556 0.000000
0.133333 0.355556 0.044444
0.133333 0.355556 0.088889
0.133333 0.355556 0.133333
0.133333 0.355556 0.177778
0.133333 0.355556 0.222222
0.133333 0.355556 0.266667
0.133333 0.355556 0.311111
0.133333 0.355556 0.355556
0.133333 0.355556 0.400000
0.133333 0.444444 0.000000
0.133333 0.444444 0.044444
0.133333 0.444444 0.088889
0.133333 0.444444 0.133333
0.133333 0.444444 0.177778
0.133333 0.444444 0.222222
0.133333 0.444444 0.266667
0.133333 0.444444 0.311111
0.133333 0.444444 0.355556
0.133333 0.444444 0.400000
0.133333 0.533333 0.000000
0.133333 0.533333 0.044444
0.133333 0.533333 0.088889
0.133333 0.533333 0.133333
0.133333 0.533333 0.177778
0.133333 0.533333 0.222222
[...]
POINT_DATA 1000
SCALARS Temperature float 1
LOOKUP_TABLE default
118.168365
118.170654
118.172791
118.175049
118.177246
118.179504
118.181519
118.183990
118.186005
118.188263
118.204071
118.206238
118.208344
118.210419
118.212524
118.214752
118.216766
118.218872
118.220917
118.222961
118.238281
118.240204
118.242157
118.244293
118.246246
118.248230
118.250214
118.252228
118.254150
118.256287
118.270691
118.272614
118.274567
118.276459
118.278351
118.280182
118.282257
118.284088
118.285919
118.287872
118.301697
118.303589
118.305389
118.307190
118.309021
118.310822
118.312744
118.314423
118.316345
118.318054
118.331329
118.333130
118.334808
118.336487
118.338287
118.340027
118.341766
118.343536
118.345184
118.346954
118.359558
118.361237
118.362885
118.364563
118.366241
118.367889
118.369598
118.371185
118.372833
118.374481
118.386444
118.388000
118.389679
118.391266
118.392914
118.394379
118.396088
118.397675
118.399170
118.400787
118.412109
118.413696
118.415192
118.416718
118.418182
118.419647
118.421326
118.422699
118.424286
118.425751
118.436707
118.438141
118.439697
118.441010
118.442474
118.443848
118.445343
118.446808
118.448181
118.449646
118.170654
118.172821
118.175079
118.177277
118.179474
118.181610
118.183960
118.186005
118.188232
118.190460
118.206299
118.208374
118.210480
118.212555
118.214783
118.216827
118.218903
118.220917
118.222992
118.225037
118.240204
118.242096
118.244293
118.246307
118.248291
118.250214
118.252289
118.254181
118.256287
118.258301
118.272614
118.274658
118.276459
118.278412
118.280273
118.282257
118.284119
118.285919
118.287933
118.289764
118.303619
118.305389
118.307251
118.309052
118.310822
118.312805
118.314453
118.316315
118.318054
118.319916
118.333099
118.334808
118.336517
118.338287
118.340057
118.341766
118.343536
118.345245
118.347015
118.348663
118.361237
118.362946
118.364594
118.366272
118.367950
118.369598
118.371185
118.372894
118.374542
118.376129
118.388031
118.389679
118.391266
118.392914
118.394440
118.396088
118.397675
118.399200
118.400787
118.402374
118.413696
118.415253
118.416656
118.418243
118.419708
118.421326
118.422729
118.424347
118.425812
118.427277
118.438141
118.439697
118.441010
118.442505
118.443878
118.445343
118.446777
118.448242
118.449615
118.451111
118.172821
118.175079
118.177277
118.179535
118.181671
118.183929
118.186035
118.188324
118.190460
118.192535
118.208405
118.210480
118.212616
118.214813
118.216827
118.218903
118.220978
118.222992
118.225098
118.227173
118.242096
118.244293
118.246307
118.248291
118.250275
118.252289
118.254211
118.256287
118.258331
118.260162
118.274567
118.276459
118.278412
118.280273
118.282257
118.284119
118.285950
118.287903
118.289825
118.291626
118.305389
118.307251
118.309082
118.310822
118.312744
118.314514
118.316376
118.318146
118.320007
118.321747
118.334869
118.336578
118.338226
118.340057
118.341736
118.343597
118.345306
118.347046
118.348663
118.350372
118.362946
118.364624
118.366272
118.367981
118.369598
118.371246
118.372894
118.374542
118.376129
118.377808
118.389740
118.391266
118.392914
118.394440
118.396057
118.397675
118.399231
118.400757
118.402374
118.403931
118.415222
118.416748
118.418243
118.419739
118.421356
118.422760
118.424347
118.425812
118.427277
118.428802
118.439697
118.441040
118.442535
118.443848
118.445343
118.446808
118.448242
118.449615
118.451111
118.452545
118.175079
118.177338
118.179535
118.181702
118.183990
118.186066
118.188354
118.190460
118.192627
118.194733
118.210480
118.212555
118.214813
118.216858
118.218964
118.221039
118.222992
118.225128
118.227203
118.229218
118.244293
118.246307
118.248322
118.250275
118.252289
118.254242
118.256348
118.258270
118.260162
118.262177
118.276459
118.278442
118.280304
118.282288
118.284119
118.285950
118.287964
118.289825
118.291687
118.293488
118.307251
118.309113
118.310822
118.312775
118.314545
118.316345
118.318146
118.319977
118.321747
118.323517
118.336578
118.338287
118.340088
118.341705
118.343658
118.345276
118.347046
118.348724
118.350372
118.352173
118.364655
118.366272
118.368011
118.369598
118.371246
118.372925
118.374603
118.376129
118.377777
118.379395
118.391235
118.392975
118.394440
118.396057
118.397614
118.399261
118.400787
118.402374
118.403900
118.405457
118.416779
118.418243
118.419739
118.421387
118.422760
118.424377
118.425842
118.427338
118.428833
118.430267
118.441040
118.442566
118.443848
118.445404
118.446808
118.448242
118.449677
118.451111
118.452576
118.454010
118.177338
118.179596
118.181732
118.184021
118.186096
118.188324
118.190430
118.192688
118.194763
118.196930
118.212616
118.214752
118.216919
118.218933
118.221008
118.223022
118.225189
118.227234
118.229279
118.231293
118.246368
118.248352
118.250244
118.252350
118.254272
118.256317
118.258331
118.260162
118.262146
118.264160
118.278473
118.280304
118.282318
118.284149
118.286041
118.287933
118.289856
118.291656
118.293518
118.295410
118.309082
118.310822
118.312775
118.314575
118.316376
118.318176
118.320038
118.321747
118.323517
118.325348
118.338287
118.340057
118.341736
118.343658
118.345337
118.346985
118.348724
118.350372
118.352203
118.353821
118.366302
118.368011
118.369659
118.371216
118.372894
118.374603
118.376129
118.377838
118.379395
118.381073
118.392975
118.394440
118.396149
118.397614
118.399261
118.400848
118.402374
118.403961
118.405457
118.407013
118.418213
118.419769
118.421417
118.422821
118.424347
118.425842
118.427277
118.428802
118.430328
118.431763
118.442566
118.443848
118.445374
118.446838
118.448273
118.449707
118.451141
118.452606
118.453949
118.455353
118.179626
118.181732
118.183990
118.186127
118.188324
118.190430
118.192688
118.194763
118.196960
118.199066
118.214752
118.216949
118.218964
118.221039
118.223114
118.225281
118.227264
118.229248
118.231323
118.233368
118.248322
118.250305
118.252380
118.254303
118.256317
118.258301
118.260193
118.262146
118.264130
118.266144
118.280365
118.282379
118.284149
118.286011
118.287994
118.289917
118.291779
118.293488
118.295441
118.297394
118.310852
118.312805
118.314575
118.316376
118.318237
118.320038
118.321808
118.323547
118.325348
118.327179
118.340027
118.341766
118.343658
118.345337
118.347015
118.348724
118.350433
118.352203
118.353882
118.355591
118.368011
118.369659
118.371246
118.372894
118.374634
118.376190
118.377899
118.379425
118.381104
118.382782
118.394440
118.396118
118.397644
118.399261
118.400787
118.402344
118.403961
118.405487
118.407043
118.408569
118.419800
118.421417
118.422821
118.424377
118.425842
118.427277
118.428802
118.430328
118.431732
118.433258
118.443878
118.445404
118.446899
118.448273
118.449707
118.451172
118.452606
118.453949
118.455414
118.456818
118.181793
118.184052
118.186127
118.188354
118.190491
118.192719
118.194794
118.196960
118.199097
118.201263
118.216949
118.218994
118.221039
118.223114
118.225311
118.227295
118.229279
118.231354
118.233429
118.235352
118.250305
118.252350
118.254364
118.256256
118.258331
118.260162
118.262177
118.264191
118.266205
118.268097
118.282349
118.284149
118.286041
118.287964
118.289978
118.291779
118.293579
118.295502
118.297394
118.299164
118.312836
118.314636
118.316376
118.318237
118.320068
118.321838
118.323578
118.325378
118.327148
118.328827
118.341736
118.343658
118.345306
118.347015
118.348755
118.350433
118.352234
118.353882
118.355591
118.357208
118.369720
118.371307
118.372864
118.374603
118.376129
118.377869
118.379395
118.381073
118.382751
118.384369
118.396149
118.397705
118.399261
118.400818
118.402344
118.403961
118.405518
118.407074
118.408600
118.410187
118.421417
118.422882
118.424469
118.425873
118.427338
118.428833
118.430328
118.431793
118.433319
118.434692
118.445404
118.446869
118.448303
118.449707
118.451141
118.452576
118.453979
118.455414
118.456818
118.458221
118.184082
118.186157
118.188354
118.190460
118.192749
118.194794
118.196960
118.199158
118.201233
118.203278
118.218964
118.221039
118.223114
118.225281
118.227356
118.229309
118.231384
118.233490
118.235413
118.237518
118.252350
118.254364
118.256317
118.258331
118.260193
118.262238
118.264221
118.266205
118.268127
118.270050
118.284241
118.286102
118.287964
118.289948
118.291718
118.293579
118.295502
118.297424
118.299225
118.301056
118.314667
118.316437
118.318237
118.320099
118.321869
118.323608
118.325470
118.327179
118.328888
118.330719
118.343719
118.345367
118.347076
118.348755
118.350464
118.352203
118.353882
118.355621
118.357178
118.358948
118.371277
118.372925
118.374603
118.376160
118.377899
118.379486
118.381134
118.382782
118.384399
118.385956
118.397705
118.399323
118.400848
118.402344
118.404022
118.405548
118.407074
118.408600
118.410187
118.411621
118.422852
118.424438
118.425934
118.427368
118.428864
118.430359
118.431763
118.433319
118.434692
118.436249
118.446869
118.448303
118.449738
118.451141
118.452637
118.454010
118.455383
118.456818
118.458252
118.459625
118.186157
118.188324
118.190521
118.192749
118.194794
118.197021
118.199158
118.201263
118.203339
118.205536
118.221069
118.223145
118.225342
118.227386
118.229340
118.231354
118.233521
118.235443
118.237518
118.239594
118.254395
118.256317
118.258331
118.260254
118.262268
118.264191
118.266205
118.268158
118.270111
118.272034
118.286102
118.288055
118.290009
118.291748
118.293640
118.295532
118.297424
118.299225
118.301056
118.303009
118.316437
118.318237
118.320099
118.321869
118.323608
118.325439
118.327240
118.328918
118.330750
118.332520
118.345398
118.347107
118.348724
118.350525
118.352203
118.353943
118.355652
118.357269
118.358978
118.360657
118.373016
118.374603
118.376190
118.377899
118.379486
118.381134
118.382812
118.384369
118.385925
118.387482
118.399323
118.400848
118.402435
118.404022
118.405579
118.407104
118.408600
118.410217
118.411621
118.413177
118.424438
118.425995
118.427399
118.428894
118.430359
118.431824
118.433350
118.434723
118.436279
118.437714
118.448334
118.449738
118.451202
118.452637
118.454071
118.455414
118.456818
118.458221
118.459564
118.461060
118.188324
118.190521
118.192780
118.194794
118.196991
118.199188
118.201355
118.203339
118.205597
118.207672
118.223145
118.225342
118.227386
118.229401
118.231354
118.233490
118.235443
118.237579
118.239532
118.241669
118.256378
118.258392
118.260284
118.262238
118.264282
118.266205
118.268127
118.270050
118.272095
118.273926
118.288055
118.290039
118.291809
118.293640
118.295502
118.297394
118.299255
118.301117
118.303040
118.304840
118.318237
118.320068
118.321838
118.323669
118.325531
118.327271
118.328888
118.330780
118.332550
118.334320
118.347107
118.348785
118.350525
118.352264
118.353912
118.355621
118.357300
118.358948
118.360718
118.362457
118.374603
118.376221
118.377899
118.379486
118.381134
118.382812
118.384430
118.385986
118.387543
118.389130
118.400848
118.402435
118.404053
118.405548
118.407135
118.408630
118.410156
118.411682
118.413239
118.414795
118.425995
118.427399
118.428925
118.430359
118.431915
118.433319
118.434753
118.436249
118.437653
118.439178
118.449738
118.451233
118.452667
118.454071
118.455414
118.456818
118.458282
118.459625
118.461029
118.462402

SCALARS Alpha float 1
LOOKUP_TABLE default
-2.500437
-2.500410
-2.500381
-2.500353
-2.500327
-2.500301
-2.500273
-2.500247
-2.500220
-2.500195
-2.499998
-2.499973
-2.499946
-2.499921
-2.499895
-2.499870
-2.499843
-2.499819
-2.499793
-2.499767
-2.499581
-2.499557
-2.499532
-2.499508
-2.499482
-2.499458
-2.499435
-2.499408
-2.499385
-2.499361
-2.499183
-2.499159
-2.499136
-2.499114
-2.499089
-2.499065
-2.499043
-2.499020
-2.498997
-2.498974
-2.498804
-2.498781
-2.498760
-2.498737
-2.498714
-2.498692
-2.498670
-2.498647
-2.498625
-2.498604
-2.498442
-2.498421
-2.498399
-2.498377
-2.498356
-2.498334
-2.498313
-2.498292
-2.498271
-2.498250
-2.498096
-2.498075
-2.498055
-2.498035
-2.498015
-2.497994
-2.497975
-2.497954
-2.497934
-2.497914
-2.497766
-2.497746
-2.497727
-2.497708
-2.497689
-2.497669
-2.497650
-2.497631
-2.497612
-2.497592
-2.497452
-2.497433
-2.497415
-2.497397
-2.497379
-2.497359
-2.497341
-2.497322
-2.497305
-2.497285
-2.497153
-2.497135
-2.497117
-2.497099
-2.497081
-2.497062
-2.497047
-2.497029
-2.497010
-2.496994
-2.500409
-2.500381
-2.500352
-2.500327
-2.500300
-2.500274
-2.500246
-2.500218
-2.500193
-2.500165
-2.499972
-2.499946
-2.499922
-2.499895
-2.499870
-2.499843
-2.499818
-2.499792
-2.499767
-2.499742
-2.499557
-2.499532
-2.499508
-2.499482
-2.499459
-2.499434
-2.499409
-2.499385
-2.499362
-2.499336
-2.499159
-2.499135
-2.499113
-2.499089
-2.499065
-2.499042
-2.499019
-2.498998
-2.498973
-2.498950
-2.498781
-2.498759
-2.498737
-2.498714
-2.498692
-2.498669
-2.498647
-2.498625
-2.498603
-2.498580
-2.498422
-2.498399
-2.498377
-2.498356
-2.498334
-2.498313
-2.498291
-2.498271
-2.498250
-2.498230
-2.498075
-2.498055
-2.498034
-2.498015
-2.497993
-2.497975
-2.497953
-2.497932
-2.497914
-2.497895
-2.497747
-2.497728
-2.497708
-2.497689
-2.497669
-2.497650
-2.497632
-2.497612
-2.497591
-2.497573
-2.497433
-2.497415
-2.497397
-2.497378
-2.497358
-2.497341
-2.497321
-2.497305
-2.497286
-2.497268
-2.497134
-2.497117
-2.497098
-2.497080
-2.497063
-2.497046
-2.497029
-2.497011
-2.496994
-2.496976
-2.500381
-2.500353
-2.500327
-2.500300
-2.500273
-2.500246
-2.500218
-2.500192
-2.500165
-2.500139
-2.499946
-2.499921
-2.499894
-2.499869
-2.499843
-2.499817
-2.499793
-2.499767
-2.499742
-2.499716
-2.499531
-2.499508
-2.499483
-2.499457
-2.499433
-2.499408
-2.499384
-2.499361
-2.499336
-2.499312
-2.499135
-2.499112
-2.499088
-2.499065
-2.499042
-2.499020
-2.498995
-2.498973
-2.498950
-2.498926
-2.498758
-2.498736
-2.498713
-2.498691
-2.498668
-2.498647
-2.498625
-2.498603
-2.498580
-2.498559
-2.498398
-2.498377
-2.498355
-2.498334
-2.498313
-2.498291
-2.498270
-2.498250
-2.498230
-2.498207
-2.498055
-2.498034
-2.498014
-2.497993
-2.497975
-2.497954
-2.497933
-2.497913
-2.497894
-2.497873
-2.497727
-2.497707
-2.497688
-2.497669
-2.497650
-2.497632
-2.497611
-2.497592
-2.497573
-2.497553
-2.497414
-2.497396
-2.497378
-2.497358
-2.497341
-2.497322
-2.497305
-2.497286
-2.497267
-2.497248
-2.497116
-2.497098
-2.497080
-2.497062
-2.497046
-2.497029
-2.497011
-2.496994
-2.496977
-2.496959
-2.500352
-2.500326
-2.500300
-2.500272
-2.500246
-2.500218
-2.500192
-2.500165
-2.500140
-2.500112
-2.499920
-2.499894
-2.499869
-2.499843
-2.499817
-2.499792
-2.499765
-2.499742
-2.499715
-2.499691
-2.499507
-2.499482
-2.499457
-2.499433
-2.499408
-2.499384
-2.499360
-2.499335
-2.499312
-2.499287
-2.499112
-2.499088
-2.499065
-2.499041
-2.499019
-2.498996
-2.498972
-2.498950
-2.498926
-2.498904
-2.498737
-2.498713
-2.498691
-2.498668
-2.498647
-2.498625
-2.498602
-2.498580
-2.498559
-2.498536
-2.498378
-2.498356
-2.498335
-2.498313
-2.498291
-2.498270
-2.498250
-2.498229
-2.498207
-2.498186
-2.498034
-2.498014
-2.497992
-2.497974
-2.497953
-2.497932
-2.497913
-2.497894
-2.497874
-2.497853
-2.497707
-2.497688
-2.497669
-2.497650
-2.497631
-2.497611
-2.497592
-2.497572
-2.497554
-2.497534
-2.497396
-2.497378
-2.497358
-2.497341
-2.497322
-2.497305
-2.497285
-2.497267
-2.497249
-2.497232
-2.497099
-2.497080
-2.497062
-2.497046
-2.497029
-2.497011
-2.496994
-2.496976
-2.496959
-2.496942
-2.500325
-2.500300
-2.500271
-2.500246
-2.500219
-2.500192
-2.500165
-2.500140
-2.500111
-2.500086
-2.499894
-2.499869
-2.499842
-2.499817
-2.499791
-2.499765
-2.499742
-2.499715
-2.499691
-2.499666
-2.499482
-2.499457
-2.499433
-2.499409
-2.499385
-2.499360
-2.499336
-2.499312
-2.499287
-2.499264
-2.499088
-2.499065
-2.499042
-2.499018
-2.498994
-2.498972
-2.498949
-2.498926
-2.498904
-2.498880
-2.498713
-2.498691
-2.498668
-2.498648
-2.498625
-2.498602
-2.498580
-2.498558
-2.498537
-2.498514
-2.498355
-2.498335
-2.498312
-2.498290
-2.498270
-2.498249
-2.498229
-2.498207
-2.498186
-2.498165
-2.498013
-2.497993
-2.497973
-2.497953
-2.497932
-2.497912
-2.497893
-2.497873
-2.497853
-2.497832
-2.497688
-2.497668
-2.497650
-2.497631
-2.497611
-2.497591
-2.497573
-2.497554
-2.497534
-2.497516
-2.497378
-2.497358
-2.497340
-2.497321
-2.497303
-2.497284
-2.497267
-2.497248
-2.497231
-2.497213
-2.497080
-2.497062
-2.497045
-2.497028
-2.497011
-2.496994
-2.496976
-2.496959
-2.496941
-2.496923
-2.500300
-2.500271
-2.500245
-2.500217
-2.500192
-2.500165
-2.500139
-2.500112
-2.500085
-2.500060
-2.499869
-2.499843
-2.499816
-2.499791
-2.499765
-2.499741
-2.499715
-2.499691
-2.499665
-2.499640
-2.499456
-2.499433
-2.499408
-2.499385
-2.499359
-2.499335
-2.499312
-2.499287
-2.499263
-2.499239
-2.499065
-2.499041
-2.499018
-2.498996
-2.498972
-2.498949
-2.498926
-2.498904
-2.498880
-2.498857
-2.498690
-2.498668
-2.498647
-2.498625
-2.498602
-2.498580
-2.498559
-2.498537
-2.498515
-2.498492
-2.498334
-2.498312
-2.498291
-2.498269
-2.498249
-2.498230
-2.498207
-2.498185
-2.498165
-2.498145
-2.497992
-2.497973
-2.497953
-2.497932
-2.497913
-2.497892
-2.497873
-2.497853
-2.497832
-2.497813
-2.497668
-2.497650
-2.497630
-2.497612
-2.497591
-2.497572
-2.497553
-2.497533
-2.497516
-2.497497
-2.497357
-2.497340
-2.497321
-2.497304
-2.497284
-2.497267
-2.497248
-2.497231
-2.497213
-2.497194
-2.497062
-2.497045
-2.497029
-2.497011
-2.496994
-2.496975
-2.496959
-2.496942
-2.496923
-2.496906
-2.500271
-2.500245
-2.500217
-2.500191
-2.500165
-2.500139
-2.500111
-2.500084
-2.500061
-2.500035
-2.499842
-2.499817
-2.499790
-2.499765
-2.499741
-2.499714
-2.499691
-2.499664
-2.499639
-2.499614
-2.499433
-2.499408
-2.499385
-2.499359
-2.499335
-2.499312
-2.499288
-2.499263
-2.499239
-2.499216
-2.499041
-2.499019
-2.498995
-2.498972
-2.498950
-2.498926
-2.498903
-2.498879
-2.498857
-2.498834
-2.498668
-2.498646
-2.498625
-2.498601
-2.498580
-2.498558
-2.498537
-2.498513
-2.498493
-2.498471
-2.498312
-2.498290
-2.498270
-2.498249
-2.498228
-2.498206
-2.498185
-2.498165
-2.498145
-2.498124
-2.497973
-2.497953
-2.497932
-2.497913
-2.497892
-2.497873
-2.497853
-2.497833
-2.497813
-2.497792
-2.497649
-2.497630
-2.497611
-2.497591
-2.497572
-2.497554
-2.497533
-2.497516
-2.497496
-2.497477
-2.497340
-2.497321
-2.497303
-2.497283
-2.497267
-2.497248
-2.497231
-2.497213
-2.497194
-2.497176
-2.497044
-2.497027
-2.497011
-2.496994
-2.496976
-2.496958
-2.496941
-2.496923
-2.496906
-2.496889
-2.500245
-2.500218
-2.500192
-2.500165
-2.500139
-2.500111
-2.500085
-2.500059
-2.500034
-2.500007
-2.499817
-2.499790
-2.499765
-2.499741
-2.499714
-2.499690
-2.499665
-2.499639
-2.499614
-2.499589
-2.499407
-2.499384
-2.499359
-2.499335
-2.499311
-2.499287
-2.499264
-2.499238
-2.499215
-2.499192
-2.499018
-2.498995
-2.498972
-2.498949
-2.498926
-2.498903
-2.498879
-2.498857
-2.498834
-2.498811
-2.498646
-2.498624
-2.498601
-2.498578
-2.498557
-2.498535
-2.498514
-2.498492
-2.498471
-2.498449
-2.498291
-2.498269
-2.498249
-2.498229
-2.498206
-2.498185
-2.498164
-2.498145
-2.498124
-2.498103
-2.497953
-2.497932
-2.497911
-2.497893
-2.497872
-2.497853
-2.497832
-2.497813
-2.497792
-2.497772
-2.497630
-2.497611
-2.497591
-2.497572
-2.497553
-2.497533
-2.497515
-2.497495
-2.497477
-2.497458
-2.497322
-2.497303
-2.497284
-2.497267
-2.497248
-2.497230
-2.497213
-2.497194
-2.497176
-2.497158
-2.497027
-2.497010
-2.496994
-2.496976
-2.496959
-2.496940
-2.496922
-2.496906
-2.496890
-2.496871
-2.500218
-2.500190
-2.500165
-2.500139
-2.500111
-2.500085
-2.500059
-2.500033
-2.500008
-2.499981
-2.499790
-2.499765
-2.499740
-2.499714
-2.499690
-2.499664
-2.499639
-2.499614
-2.499590
-2.499564
-2.499384
-2.499359
-2.499335
-2.499311
-2.499287
-2.499264
-2.499238
-2.499215
-2.499191
-2.499168
-2.498995
-2.498971
-2.498949
-2.498925
-2.498903
-2.498880
-2.498856
-2.498834
-2.498811
-2.498787
-2.498624
-2.498602
-2.498578
-2.498557
-2.498536
-2.498514
-2.498492
-2.498470
-2.498448
-2.498426
-2.498270
-2.498248
-2.498228
-2.498205
-2.498185
-2.498165
-2.498144
-2.498124
-2.498104
-2.498082
-2.497931
-2.497911
-2.497893
-2.497872
-2.497853
-2.497831
-2.497813
-2.497792
-2.497772
-2.497752
-2.497611
-2.497592
-2.497572
-2.497552
-2.497533
-2.497515
-2.497495
-2.497476
-2.497458
-2.497441
-2.497302
-2.497283
-2.497266
-2.497247
-2.497230
-2.497213
-2.497193
-2.497176
-2.497158