# vtk DataFile Version 3.0
PINN prediction t=35751.72265625
ASCII
DATASET UNSTRUCTURED_GRID
POINTS 1000 float
0.000000 0.000000 0.000000
0.000000 0.000000 0.044444
0.000000 0.000000 0.088889
0.000000 0.000000 0.133333
0.000000 0.000000 0.177778
0.000000 0.000000 0.222222
0.000000 0.000000 0.266667
0.000000 0.000000 0.311111
0.000000 0.000000 0.355556
0.000000 0.000000 0.400000
0.000000 0.088889 0.000000
0.000000 0.088889 0.044444
0.000000 0.088889 0.088889
0.000000 0.088889 0.133333
0.000000 0.088889 0.177778
0.000000 0.088889 0.222222
0.000000 0.088889 0.266667
0.000000 0.088889 0.311111
0.000000 0.088889 0.355556
0.000000 0.088889 0.400000
0.000000 0.177778 0.000000
0.000000 0.177778 0.044444
0.000000 0.177778 0.088889
0.000000 0.177778 0.133333
0.000000 0.177778 0.177778
0.000000 0.177778 0.222222
0.000000 0.177778 0.266667
0.000000 0.177778 0.311111
0.000000 0.177778 0.355556
0.000000 0.177778 0.400000
0.000000 0.266667 0.000000
0.000000 0.266667 0.044444
0.000000 0.266667 0.088889
0.000000 0.266667 0.133333
0.000000 0.266667 0.177778
0.000000 0.266667 0.222222
0.000000 0.266667 0.266667
0.000000 0.266667 0.311111
0.000000 0.266667 0.355556
0.000000 0.266667 0.400000
0.000000 0.355556 0.000000
0.000000 0.355556 0.044444
0.000000 0.355556 0.088889
0.000000 0.355556 0.133333
0.000000 0.355556 0.177778
0.000000 0.355556 0.222222
0.000000 0.355556 0.266667
0.000000 0.355556 0.311111
0.000000 0.355556 0.355556
0.000000 0.355556 0.400000
0.000000 0.444444 0.000000
0.000000 0.444444 0.044444
0.000000 0.444444 0.088889
0.000000 0.444444 0.133333
0.000000 0.444444 0.177778
0.000000 0.444444 0.222222
0.000000 0.444444 0.266667
0.000000 0.444444 0.311111
0.000000 0.444444 0.355556
0.000000 0.444444 0.400000
0.000000 0.533333 0.000000
0.000000 0.533333 0.044444
0.000000 0.533333 0.088889
0.000000 0.533333 0.133333
0.000000 0.533333 0.177778
0.000000 0.533333 0.222222
0.000000 0.533333 0.266667
0.000000 0.533333 0.311111
0.000000 0.533333 0.355556
0.000000 0.533333 0.400000
0.000000 0.622222 0.000000
0.000000 0.622222 0.044444
0.000000 0.622222 0.088889
0.000000 0.622222 0.133333
0.000000 0.622222 0.177778
0.000000 0.622222 0.222222
0.000000 0.622222 0.266667
0.000000 0.622222 0.311111
0.000000 0.622222 0.355556
0.000000 0.622222 0.400000
0.000000 0.711111 0.000000
0.000000 0.711111 0.044444
0.000000 0.711111 0.088889
0.000000 0.711111 0.133333
0.000000 0.711111 0.177778
0.000000 0.711111 0.222222
0.000000 0.711111 0.266667
0.000000 0.711111 0.311111
0.000000 0.711111 0.355556
0.000000 0.711111 0.400000
0.000000 0.800000 0.000000
0.000000 0.800000 0.044444
0.000000 0.800000 0.088889
0.000000 0.800000 0.133333
0.000000 0.800000 0.177778
0.000000 0.800000 0.222222
0.000000 0.800000 0.266667
0.000000 0.800000 0.311111
0.000000 0.800000 0.355556
0.000000 0.800000 0.400000
0.044444 0.000000 0.000000
0.044444 0.000000 0.044444
0.044444 0.000000 0.088889
0.044444 0.000000 0.133333
0.044444 0.000000 0.177778
0.044444 0.000000 0.222222
0.044444 0.000000 0.266667
0.044444 0.000000 0.311111
0.044444 0.000000 0.355556
0.044444 0.000000 0.400000
0.044444 0.088889 0.000000
0.044444 0.088889 0.044444
0.044444 0.088889 0.088889
0.044444 0.088889 0.133333
0.044444 0.088889 0.177778
0.044444 0.088889 0.222222
0.044444 0.088889 0.266667
0.044444 0.088889 0.311111
0.044444 0.088889 0.355556
0.044444 0.088889 0.400000
0.044444 0.177778 0.000000
0.044444 0.177778 0.044444
0.044444 0.177778 0.088889
0.044444 0.177778 0.133333
0.044444 0.177778 0.177778
0.044444 0.177778 0.222222
0.044444 0.177778 0.266667
0.044444 0.177778 0.311111
0.044444 0.177778 0.355556
0.044444 0.177778 0.400000
0.044444 0.266667 0.000000
0.044444 0.266667 0.044444
0.044444 0.266667 0.088889
0.044444 0.266667 0.133333
0.044444 0.266667 0.177778
0.044444 0.266667 0.222222
0.044444 0.266667 0.266667
0.044444 0.266667 0.311111
0.044444 0.266667 0.355556
0.044444 0.266667 0.400000
0.044444 0.355556 0.000000
0.044444 0.355556 0.044444
0.044444 0.355556 0.088889
0.044444 0.355556 0.133333
0.044444 0.355556 0.177778
0.044444 0.355556 0.222222
0.044444 0.355556 0.266667
0.044444 0.355556 0.311111
0.044444 0.355556 0.355556
0.044444 0.355556 0.400000
0.044444 0.444444 0.000000
0.044444 0.444444 0.044444
0.044444 0.444444 0.088889
0.044444 0.444444 0.133333
0.044444 0.444444 0.177778
0.044444 0.444444 0.222222
0.044444 0.444444 0.266667
0.044444 0.444444 0.311111
0.044444 0.444444 0.355556
0.044444 0.444444 0.400000
0.044444 0.533333 0.000000
0.044444 0.533333 0.044444
0.044444 0.533333 0.088889
0.044444 0.533333 0.133333
0.044444 0.533333 0.177778
0.044444 0.533333 0.222222
0.044444 0.533333 0.266667
0.044444 0.533333 0.311111
0.044444 0.533333 0.355556
0.044444 0.533333 0.400000
0.044444 0.622222 0.000000
0.044444 0.622222 0.044444
0.044444 0.622222 0.088889
0.044444 0.622222 0.133333
0.044444 0.622222 0.177778
0.044444 0.622222 0.222222
0.044444 0.622222 0.266667
0.044444 0.622222 0.311111
0.044444 0.622222 0.355556
0.044444 0.622222 0.400000
0.044444 0.711111 0.000000
0.044444 0.711111 0.044444
0.044444 0.711111 0.088889
0.044444 0.711111 0.133333
0.044444 0.711111 0.177778
0.044444 0.711111 0.222222
0.044444 0.711111 0.266667
0.044444 0.711111 0.311111
0.044444 0.711111 0.355556
0.044444 0.711111 0.400000
0.044444 0.800000 0.000000
0.044444 0.800000 0.044444
0.044444 0.800000 0.088889
0.044444 0.800000 0.133333
0.044444 0.800000 0.177778
0.044444 0.800000 0.222222
0.044444 0.800000 0.266667
0.044444 0.800000 0.311111
0.044444 0.800000 0.355556
0.044444 0.800000 0.400000
0.088889 0.000000 0.000000
0.088889 0.000000 0.044444
0.088889 0.000000 0.088889
0.088889 0.000000 0.133333
0.088889 0.000000 0.177778
0.088889 0.000000 0.222222
0.088889 0.000000 0.266667
0.088889 0.000000 0.311111
0.088889 0.000000 0.355556
0.088889 0.000000 0.400000
0.088889 0.088889 0.000000
0.088889 0.088889 0.044444
0.088889 0.088889 0.088889
0.088889 0.088889 0.133333
0.088889 0.088889 0.177778
0.088889 0.088889 0.222222
0.088889 0.088889 0.266667
0.088889 0.088889 0.311111
0.088889 0.088889 0.355556
0.088889 0.088889 0.400000
0.088889 0.177778 0.000000
0.088889 0.177778 0.044444
0.088889 0.177778 0.088889
0.088889 0.177778 0.133333
0.088889 0.177778 0.177778
0.088889 0.177778 0.222222
0.088889 0.177778 0.266667
0.088889 0.177778 0.311111
0.088889 0.177778 0.355556
0.088889 0.177778 0.400000
0.088889 0.266667 0.000000
0.088889 0.266667 0.044444
0.088889 0.266667 0.088889
0.088889 0.266667 0.133333
0.088889 0.266667 0.177778
0.088889 0.266667 0.222222
0.088889 0.266667 0.266667
0.088889 0.266667 0.311111
0.088889 0.266667 0.355556
0.088889 0.266667 0.400000
0.088889 0.355556 0.000000
0.088889 0.355556 0.044444
0.088889 0.355556 0.088889
0.088889 0.355556 0.133333
0.088889 0.355556 0.177778
0.088889 0.355556 0.222222
0.088889 0.355556 0.266667
0.088889 0.355556 0.311111
0.088889 0.355556 0.355556
0.088889 0.355556 0.400000
0.088889 0.444444 0.000000
0.088889 0.444444 0.044444
0.088889 0.444444 0.088889
0.088889 0.444444 0.133333
0.088889 0.444444 0.177778
0.088889 0.444444 0.222222
0.088889 0.444444 0.266667
0.088889 0.444444 0.311111
0.088889 0.444444 0.355556
0.088889 0.444444 0.400000
0.088889 0.533333 0.000000
0.088889 0.533333 0.044444
0.088889 0.533333 0.088889
0.088889 0.533333 0.133333
0.088889 0.533333 0.177778
0.088889 0.533333 0.222222
0.088889 0.533333 0.266667
0.088889 0.533333 0.311111
0.088889 0.533333 0.355556
0.088889 0.533333 0.400000
0.088889 0.622222 0.000000
0.088889 0.622222 0.044444
0.088889 0.622222 0.088889
0.088889 0.622222 0.133333
0.088889 0.622222 0.177778
0.088889 0.622222 0.222222
0.088889 0.622222 0.266667
0.088889 0.622222 0.311111
0.088889 0.622222 0.355556
0.088889 0.622222 0.400000
0.088889 0.711111 0.000000
0.088889 0.711111 0.044444
0.088889 0.711111 0.088889
0.088889 0.711111 0.133333
0.088889 0.711111 0.177778
0.088889 0.711111 0.222222
0.088889 0.711111 0.266667
0.088889 0.711111 0.311111
0.088889 0.711111 0.355556
0.088889 0.711111 0.400000
0.088889 0.800000 0.000000
0.088889 0.800000 0.044444
0.088889 0.800000 0.088889
0.088889 0.800000 0.133333
0.088889 0.800000 0.177778
0.088889 0.800000 0.222222
0.088889 0.800000 0.266667
0.088889 0.800000 0.311111
0.088889 0.800000 0.355556
0.088889 0.800000 0.400000
0.133333 0.000000 0.000000
0.133333 0.000000 0.044444
0.133333 0.000000 0.088889
0.133333 0.000000 0.133333
0.133333 0.000000 0.177778
0.133333 0.000000 0.222222
0.133333 0.000000 0.266667
0.133333 0.000000 0.311111
0.133333 0.000000 0.355556
0.133333 0.000000 0.400000
0.133333 0.088889 0.000000
0.133333 0.088889 0.044444
0.133333 0.088889 0.088889
0.133333 0.088889 0.133333
0.133333 0.088889 0.177778
0.133333 0.088889 0.222222
0.133333 0.088889 0.266667
0.133333 0.088889 0.311111
0.133333 0.088889 0.355556
0.133333 0.088889 0.400000
0.133333 0.177778 0.000000
0.133333 0.177778 0.044444
0.133333 0.177778 0.088889
0.133333 0.177778 0.133333
0.133333 0.177778 0.177778
0.133333 0.177778 0.222222
0.133333 0.177778 0.266667
0.133333 0.177778 0.311111
0.133333 0.177778 0.355556
0.133333 0.177778 0.400000
0.133333 0.266667 0.000000
0.133333 0.266667 0.044444
0.133333 0.266667 0.088889
0.133333 0.266667 0.133333
0.133333 0.266667 0.177778
0.133333 0.266667 0.222222
0.133333 0.266667 0.266667
0.133333 0.266667 0.311111
0.133333 0.266667 0.355556
0.133333 0.266667 0.400000
0.133333 0.355556 0.000000
0.133333 0.355556 0.044444
0.133333 0.355556 0.088889
0.133333 0.355556 0.133333
0.133333 0.355556 0.177778
0.133333 0.355556 0.222222
0.133333 0.355556 0.266667
0.133333 0.355556 0.311111
0.133333 0.355556 0.355556
0.133333 0.355556 0.400000
0.133333 0.444444 0.000000
0.133333 0.444444 0.044444
0.133333 0.444444 0.088889
0.133333 0.444444 0.133333
0.133333 0.444444 0.177778
0.133333 0.444444 0.222222
0.133333 0.444444 0.266667
0.133333 0.444444 0.311111
0.133333 0.444444 0.355556
0.133333 0.444444 0.400000
0.133333 0.533333 0.000000
0.133333 0.533333 0.044444
0.133333 0.533333 0.088889
0.133333 0.533333 0.133333
0.133333 0.533333 0.177778
0.133333 0.533333 0.222222
[...]
POINT_DATA 1000
SCALARS Temperature float 1
LOOKUP_TABLE default
118.773956
118.774445
118.774872
118.775421
118.775879
118.776398
118.776886
118.777374
118.777832
118.778320
118.781769
118.782257
118.782715
118.783203
118.783630
118.784119
118.784393
118.784821
118.785431
118.785858
118.789124
118.789581
118.790070
118.790436
118.790833
118.791260
118.791779
118.792175
118.792572
118.792999
118.796265
118.796570
118.797058
118.797424
118.797882
118.798309
118.798676
118.799164
118.799438
118.799957
118.802887
118.803375
118.803711
118.804138
118.804565
118.804962
118.805298
118.805756
118.806061
118.806488
118.809418
118.809723
118.810150
118.810516
118.810944
118.811310
118.811676
118.812012
118.812347
118.812653
118.815460
118.815826
118.816162
118.816620
118.816925
118.817322
118.817688
118.818024
118.818451
118.818756
118.821411
118.821686
118.822021
118.822327
118.822784
118.822998
118.823303
118.823639
118.824066
118.824432
118.826935
118.827179
118.827545
118.827850
118.828186
118.828522
118.828857
118.829254
118.829590
118.829834
118.832184
118.832520
118.832794
118.833099
118.833435
118.833771
118.834137
118.834381
118.834747
118.834930
118.774414
118.774872
118.775421
118.775879
118.776398
118.776886
118.777374
118.777832
118.778351
118.778778
118.782227
118.782684
118.783234
118.783600
118.784088
118.784393
118.784821
118.785431
118.785828
118.786285
118.789612
118.790100
118.790436
118.790863
118.791229
118.791748
118.792145
118.792572
118.792999
118.793427
118.796539
118.797058
118.797424
118.797882
118.798309
118.798676
118.799103
118.799438
118.799957
118.800323
118.803375
118.803711
118.804169
118.804535
118.804962
118.805359
118.805725
118.806061
118.806488
118.806915
118.809723
118.810211
118.810516
118.811005
118.811310
118.811676
118.812012
118.812347
118.812683
118.813080
118.815826
118.816162
118.816620
118.816925
118.817322
118.817688
118.818024
118.818451
118.818756
118.819061
118.821686
118.822052
118.822327
118.822784
118.822998
118.823303
118.823639
118.824066
118.824402
118.824738
118.827179
118.827576
118.827850
118.828217
118.828552
118.828888
118.829315
118.829559
118.829834
118.830109
118.832520
118.832764
118.833130
118.833466
118.833801
118.834137
118.834442
118.834747
118.834991
118.835297
118.774933
118.775452
118.775848
118.776398
118.776947
118.777374
118.777863
118.778381
118.778778
118.779205
118.782684
118.783234
118.783630
118.784119
118.784424
118.784821
118.785400
118.785828
118.786285
118.786774
118.790070
118.790436
118.790833
118.791260
118.791779
118.792145
118.792572
118.792999
118.793427
118.793793
118.797058
118.797424
118.797882
118.798309
118.798737
118.799103
118.799438
118.799988
118.800323
118.800751
118.803711
118.804169
118.804565
118.804962
118.805359
118.805756
118.806061
118.806488
118.806885
118.807281
118.810211
118.810516
118.810974
118.811310
118.811676
118.812042
118.812347
118.812714
118.813110
118.813507
118.816162
118.816650
118.816956
118.817352
118.817688
118.818085
118.818451
118.818756
118.819061
118.819489
118.822052
118.822357
118.822784
118.823029
118.823334
118.823639
118.824066
118.824432
118.824768
118.825043
118.827576
118.827881
118.828217
118.828552
118.828888
118.829315
118.829590
118.829865
118.830109
118.830505
118.832764
118.833130
118.833466
118.833771
118.834137
118.834442
118.834747
118.834991
118.835297
118.835663
118.775452
118.775879
118.776398
118.776947
118.777374
118.777893
118.778351
118.778778
118.779205
118.779694
118.783173
118.783600
118.784088
118.784424
118.784821
118.785431
118.785828
118.786316
118.786774
118.787201
118.790436
118.790894
118.791290
118.791779
118.792206
118.792572
118.792999
118.793396
118.793793
118.794281
118.797455
118.797882
118.798309
118.798737
118.799133
118.799500
118.799988
118.800323
118.800751
118.801178
118.804169
118.804535
118.804962
118.805359
118.805756
118.806091
118.806458
118.806885
118.807281
118.807678
118.810516
118.810974
118.811310
118.811676
118.812012
118.812347
118.812714
118.813110
118.813507
118.813873
118.816620
118.816956
118.817322
118.817688
118.818085
118.818451
118.818787
118.819061
118.819489
118.819794
118.822357
118.822754
118.822968
118.823334
118.823639
118.824127
118.824432
118.824768
118.825043
118.825409
118.827881
118.828247
118.828552
118.828827
118.829315
118.829590
118.829865
118.830109
118.830505
118.830750
118.833099
118.833466
118.833801
118.834137
118.834442
118.834747
118.834991
118.835297
118.835663
118.835968
118.775909
118.776398
118.776947
118.777374
118.777893
118.778381
118.778809
118.779236
118.779694
118.780182
118.783630
118.784088
118.784454
118.784821
118.785431
118.785828
118.786285
118.786774
118.787262
118.787628
118.790863
118.791290
118.791779
118.792206
118.792572
118.792999
118.793427
118.793793
118.794220
118.794708
118.797882
118.798309
118.798737
118.799164
118.799469
118.799988
118.800323
118.800751
118.801208
118.801544
118.804565
118.804962
118.805328
118.805756
118.806122
118.806488
118.806885
118.807281
118.807648
118.808105
118.811005
118.811310
118.811676
118.812012
118.812347
118.812714
118.813110
118.813538
118.813873
118.814270
118.816925
118.817352
118.817688
118.818054
118.818420
118.818756
118.819061
118.819489
118.819824
118.820099
118.822754
118.823029
118.823334
118.823669
118.824127
118.824432
118.824768
118.825073
118.825409
118.825714
118.828278
118.828583
118.828827
118.829315
118.829590
118.829865
118.830078
118.830505
118.830719
118.831177
118.833466
118.833801
118.834137
118.834442
118.834778
118.834991
118.835297
118.835663
118.835938
118.836334
118.776428
118.776947
118.777435
118.777863
118.778381
118.778778
118.779266
118.779724
118.780182
118.780731
118.784088
118.784454
118.784882
118.785431
118.785828
118.786316
118.786743
118.787262
118.787659
118.788116
118.791260
118.791779
118.792206
118.792633
118.792999
118.793427
118.793854
118.794220
118.794708
118.795227
118.798309
118.798737
118.799164
118.799500
118.799988
118.800323
118.800751
118.801208
118.801575
118.802032
118.804993
118.805328
118.805786
118.806122
118.806488
118.806885
118.807281
118.807678
118.808075
118.808441
118.811340
118.811707
118.812073
118.812347
118.812744
118.813110
118.813538
118.813873
118.814301
118.814667
118.817322
118.817688
118.818054
118.818451
118.818756
118.819031
118.819489
118.819855
118.820129
118.820618
118.823029
118.823303
118.823700
118.824097
118.824432
118.824768
118.825043
118.825409
118.825745
118.826141
118.828552
118.828857
118.829315
118.829559
118.829865
118.830109
118.830505
118.830780
118.831177
118.831482
118.833801
118.834137
118.834442
118.834747
118.834961
118.835327
118.835663
118.835907
118.836365
118.836609
118.776947
118.777405
118.777863
118.778381
118.778778
118.779266
118.779755
118.780212
118.780731
118.781097
118.784485
118.784882
118.785431
118.785858
118.786316
118.786774
118.787201
118.787689
118.788116
118.788513
118.791779
118.792206
118.792572
118.792999
118.793427
118.793854
118.794250
118.794739
118.795227
118.795654
118.798706
118.799133
118.799500
118.799957
118.800323
118.800812
118.801208
118.801605
118.802032
118.802429
118.805328
118.805756
118.806122
118.806519
118.806854
118.807281
118.807678
118.808105
118.808441
118.808929
118.811737
118.812103
118.812347
118.812744
118.813141
118.813538
118.813812
118.814301
118.814667
118.814941
118.817688
118.818054
118.818451
118.818787
118.819061
118.819489
118.819824
118.820129
118.820618
118.820892
118.823303
118.823730
118.824097
118.824432
118.824768
118.825043
118.825409
118.825745
118.826141
118.826385
118.828888
118.829315
118.829590
118.829865
118.830109
118.830505
118.830811
118.831177
118.831482
118.831818
118.834137
118.834442
118.834747
118.834991
118.835358
118.835693
118.835907
118.836334
118.836609
118.836853
118.777374
118.777924
118.778412
118.778778
118.779266
118.779755
118.780212
118.780731
118.781128
118.781525
118.784882
118.785400
118.785858
118.786346
118.786804
118.787201
118.787689
118.788147
118.788513
118.789001
118.792236
118.792572
118.793030
118.793457
118.793884
118.794250
118.794739
118.795227
118.795654
118.796173
118.799133
118.799530
118.799957
118.800323
118.800781
118.801239
118.801605
118.802032
118.802399
118.802826
118.805756
118.806152
118.806519
118.806885
118.807312
118.807678
118.808105
118.808441
118.808929
118.809296
118.812103
118.812378
118.812744
118.813141
118.813538
118.813873
118.814301
118.814667
118.814941
118.815308
118.818054
118.818451
118.818817
118.819061
118.819489
118.819855
118.820160
118.820587
118.820892
118.821198
118.823761
118.824097
118.824463
118.824768
118.825104
118.825409
118.825745
118.826141
118.826385
118.826752
118.829315
118.829590
118.829865
118.830109
118.830536
118.830780
118.831177
118.831451
118.831787
118.832123
118.834442
118.834747
118.834930
118.835358
118.835724
118.835907
118.836334
118.836609
118.836853
118.837250
118.777924
118.778351
118.778778
118.779297
118.779755
118.780243
118.780701
118.781128
118.781525
118.782043
118.785431
118.785858
118.786346
118.786804
118.787231
118.787689
118.788116
118.788483
118.789032
118.789459
118.792572
118.793030
118.793427
118.793915
118.794220
118.794708
118.795258
118.795654
118.796173
118.796478
118.799469
118.799957
118.800323
118.800781
118.801300
118.801605
118.802032
118.802429
118.802765
118.803192
118.806122
118.806519
118.806915
118.807343
118.807678
118.808105
118.808441
118.808960
118.809296
118.809570
118.812378
118.812744
118.813141
118.813538
118.813873
118.814270
118.814667
118.814972
118.815308
118.815704
118.818451
118.818817
118.819092
118.819489
118.819855
118.820160
118.820618
118.820923
118.821198
118.821533
118.824066
118.824463
118.824799
118.825073
118.825409
118.825775
118.826172
118.826355
118.826721
118.827026
118.829620
118.829865
118.830139
118.830536
118.830780
118.831207
118.831482
118.831787
118.832153
118.832458
118.834747
118.834991
118.835358
118.835724
118.835907
118.836334
118.836639
118.836853
118.837250
118.837585
118.778351
118.778778
118.779297
118.779816
118.780243
118.780701
118.781128
118.781555
118.782074
118.782532
118.785828
118.786346
118.786804
118.787231
118.787689
118.788116
118.788483
118.789032
118.789490
118.789886
118.793030
118.793427
118.793915
118.794220
118.794708
118.795258
118.795654
118.796173
118.796509
118.796875
118.799988
118.800323
118.800812
118.801270
118.801605
118.802032
118.802460
118.802765
118.803192
118.803619
118.806519
118.806915
118.807343
118.807709
118.808105
118.808441
118.808960
118.809296
118.809601
118.810028
118.812744
118.813171
118.813538
118.813843
118.814270
118.814667
118.814972
118.815308
118.815704
118.816040
118.818817
118.819122
118.819489
118.819885
118.820160
118.820618
118.820923
118.821198
118.821564
118.821960
118.824402
118.824799
118.825073
118.825378
118.825775
118.826141
118.826355
118.826721
118.827026
118.827423
118.829895
118.830109
118.830536
118.830780
118.831177
118.831482
118.831818
118.832123
118.832458
118.832794
118.834991
118.835358
118.835724
118.835907
118.836334
118.836609
118.836884
118.837250
118.837585
118.837738

SCALARS Alpha float 1
LOOKUP_TABLE default
-2.493027
-2.493021
-2.493015
-2.493010
-2.493004
-2.492997
-2.492991
-2.492986
-2.492982
-2.492975
-2.492934
-2.492927
-2.492921
-2.492915
-2.492910
-2.492905
-2.492899
-2.492892
-2.492888
-2.492881
-2.492842
-2.492837
-2.492831
-2.492826
-2.492820
-2.492814
-2.492809
-2.492805
-2.492801
-2.492794
-2.492755
-2.492751
-2.492745
-2.492740
-2.492735
-2.492731
-2.492725
-2.492721
-2.492715
-2.492710
-2.492673
-2.492669
-2.492664
-2.492660
-2.492654
-2.492649
-2.492644
-2.492639
-2.492634
-2.492629
-2.492595
-2.492590
-2.492586
-2.492582
-2.492578
-2.492572
-2.492567
-2.492563
-2.492558
-2.492554
-2.492519
-2.492514
-2.492512
-2.492507
-2.492503
-2.492497
-2.492493
-2.492489
-2.492485
-2.492481
-2.492450
-2.492443
-2.492441
-2.492436
-2.492432
-2.492428
-2.492423
-2.492420
-2.492415
-2.492411
-2.492380
-2.492377
-2.492372
-2.492368
-2.492365
-2.492360
-2.492356
-2.492352
-2.492348
-2.492345
-2.492316
-2.492310
-2.492308
-2.492305
-2.492301
-2.492297
-2.492293
-2.492288
-2.492284
-2.492281
-2.493021
-2.493015
-2.493010
-2.493004
-2.492997
-2.492991
-2.492985
-2.492982
-2.492975
-2.492970
-2.492927
-2.492922
-2.492915
-2.492910
-2.492905
-2.492899
-2.492892
-2.492888
-2.492881
-2.492877
-2.492837
-2.492831
-2.492826
-2.492820
-2.492814
-2.492809
-2.492805
-2.492800
-2.492793
-2.492788
-2.492752
-2.492744
-2.492740
-2.492735
-2.492731
-2.492725
-2.492721
-2.492715
-2.492711
-2.492706
-2.492669
-2.492664
-2.492660
-2.492654
-2.492649
-2.492644
-2.492640
-2.492635
-2.492630
-2.492623
-2.492591
-2.492585
-2.492582
-2.492578
-2.492572
-2.492567
-2.492563
-2.492558
-2.492554
-2.492549
-2.492514
-2.492512
-2.492508
-2.492503
-2.492497
-2.492493
-2.492489
-2.492485
-2.492481
-2.492477
-2.492444
-2.492441
-2.492436
-2.492432
-2.492427
-2.492424
-2.492420
-2.492415
-2.492411
-2.492407
-2.492376
-2.492372
-2.492368
-2.492365
-2.492361
-2.492357
-2.492353
-2.492347
-2.492345
-2.492340
-2.492310
-2.492308
-2.492305
-2.492301
-2.492298
-2.492293
-2.492288
-2.492284
-2.492281
-2.492277
-2.493015
-2.493009
-2.493004
-2.492997
-2.492990
-2.492986
-2.492982
-2.492974
-2.492969
-2.492963
-2.492921
-2.492915
-2.492910
-2.492905
-2.492899
-2.492892
-2.492887
-2.492881
-2.492877
-2.492872
-2.492831
-2.492826
-2.492820
-2.492814
-2.492809
-2.492805
-2.492800
-2.492793
-2.492788
-2.492784
-2.492745
-2.492740
-2.492736
-2.492731
-2.492725
-2.492720
-2.492714
-2.492711
-2.492706
-2.492701
-2.492664
-2.492660
-2.492654
-2.492649
-2.492644
-2.492639
-2.492635
-2.492630
-2.492624
-2.492620
-2.492586
-2.492582
-2.492578
-2.492571
-2.492567
-2.492563
-2.492558
-2.492554
-2.492549
-2.492544
-2.492512
-2.492507
-2.492503
-2.492497
-2.492493
-2.492489
-2.492485
-2.492480
-2.492476
-2.492471
-2.492441
-2.492435
-2.492431
-2.492427
-2.492424
-2.492420
-2.492415
-2.492412
-2.492407
-2.492403
-2.492372
-2.492367
-2.492365
-2.492361
-2.492357
-2.492352
-2.492347
-2.492344
-2.492340
-2.492336
-2.492308
-2.492304
-2.492300
-2.492297
-2.492293
-2.492288
-2.492285
-2.492281
-2.492278
-2.492273
-2.493009
-2.493005
-2.492997
-2.492990
-2.492986
-2.492981
-2.492975
-2.492970
-2.492962
-2.492957
-2.492915
-2.492909
-2.492905
-2.492898
-2.492892
-2.492888
-2.492882
-2.492877
-2.492872
-2.492866
-2.492825
-2.492820
-2.492814
-2.492809
-2.492805
-2.492800
-2.492793
-2.492788
-2.492784
-2.492777
-2.492740
-2.492736
-2.492730
-2.492725
-2.492721
-2.492714
-2.492711
-2.492705
-2.492701
-2.492696
-2.492660
-2.492654
-2.492648
-2.492644
-2.492639
-2.492635
-2.492629
-2.492624
-2.492620
-2.492615
-2.492582
-2.492578
-2.492571
-2.492567
-2.492562
-2.492558
-2.492554
-2.492549
-2.492544
-2.492541
-2.492507
-2.492503
-2.492497
-2.492493
-2.492489
-2.492485
-2.492481
-2.492476
-2.492472
-2.492467
-2.492436
-2.492431
-2.492427
-2.492424
-2.492420
-2.492415
-2.492411
-2.492407
-2.492403
-2.492398
-2.492367
-2.492365
-2.492361
-2.492357
-2.492352
-2.492347
-2.492345
-2.492339
-2.492336
-2.492332
-2.492304
-2.492300
-2.492297
-2.492293
-2.492288
-2.492285
-2.492281
-2.492277
-2.492273
-2.492269
-2.493004
-2.492997
-2.492990
-2.492985
-2.492981
-2.492975
-2.492970
-2.492962
-2.492956
-2.492952
-2.492910
-2.492905
-2.492898
-2.492892
-2.492888
-2.492882
-2.492877
-2.492872
-2.492866
-2.492859
-2.492820
-2.492815
-2.492809
-2.492805
-2.492800
-2.492793
-2.492788
-2.492783
-2.492777
-2.492774
-2.492736
-2.492730
-2.492725
-2.492721
-2.492714
-2.492711
-2.492705
-2.492701
-2.492695
-2.492691
-2.492654
-2.492648
-2.492644
-2.492638
-2.492635
-2.492628
-2.492624
-2.492620
-2.492615
-2.492610
-2.492578
-2.492571
-2.492567
-2.492562
-2.492558
-2.492554
-2.492549
-2.492544
-2.492540
-2.492537
-2.492503
-2.492497
-2.492492
-2.492489
-2.492483
-2.492480
-2.492476
-2.492471
-2.492467
-2.492464
-2.492431
-2.492427
-2.492424
-2.492420
-2.492415
-2.492411
-2.492407
-2.492403
-2.492397
-2.492394
-2.492365
-2.492361
-2.492357
-2.492352
-2.492347
-2.492345
-2.492339
-2.492336
-2.492332
-2.492328
-2.492300
-2.492296
-2.492293
-2.492287
-2.492284
-2.492281
-2.492277
-2.492273
-2.492270
-2.492265
-2.492997
-2.492990
-2.492987
-2.492982
-2.492975
-2.492969
-2.492962
-2.492957
-2.492952
-2.492947
-2.492904
-2.492899
-2.492892
-2.492887
-2.492882
-2.492877
-2.492872
-2.492866
-2.492860
-2.492855
-2.492815
-2.492809
-2.492805
-2.492800
-2.492793
-2.492788
-2.492783
-2.492778
-2.492773
-2.492768
-2.492730
-2.492725
-2.492720
-2.492715
-2.492710
-2.492705
-2.492701
-2.492696
-2.492691
-2.492685
-2.492648
-2.492644
-2.492639
-2.492634
-2.492629
-2.492624
-2.492620
-2.492615
-2.492610
-2.492606
-2.492571
-2.492567
-2.492562
-2.492558
-2.492554
-2.492549
-2.492544
-2.492540
-2.492536
-2.492531
-2.492497
-2.492492
-2.492489
-2.492484
-2.492480
-2.492476
-2.492471
-2.492467
-2.492463
-2.492459
-2.492428
-2.492424
-2.492420
-2.492415
-2.492412
-2.492407
-2.492403
-2.492398
-2.492394
-2.492390
-2.492360
-2.492357
-2.492352
-2.492347
-2.492345
-2.492339
-2.492336
-2.492333
-2.492328
-2.492326
-2.492296
-2.492293
-2.492288
-2.492285
-2.492281
-2.492277
-2.492274
-2.492269
-2.492265
-2.492261
-2.492990
-2.492987
-2.492982
-2.492975
-2.492968
-2.492962
-2.492956
-2.492951
-2.492946
-2.492941
-2.492899
-2.492892
-2.492887
-2.492882
-2.492876
-2.492872
-2.492865
-2.492859
-2.492855
-2.492849
-2.492810
-2.492805
-2.492800
-2.492793
-2.492788
-2.492783
-2.492778
-2.492774
-2.492769
-2.492763
-2.492725
-2.492721
-2.492714
-2.492710
-2.492705
-2.492700
-2.492695
-2.492691
-2.492685
-2.492680
-2.492644
-2.492639
-2.492634
-2.492628
-2.492624
-2.492620
-2.492616
-2.492610
-2.492606
-2.492601
-2.492567
-2.492563
-2.492558
-2.492554
-2.492549
-2.492544
-2.492540
-2.492536
-2.492531
-2.492525
-2.492493
-2.492489
-2.492484
-2.492479
-2.492476
-2.492471
-2.492467
-2.492463
-2.492459
-2.492454
-2.492424
-2.492420
-2.492415
-2.492412
-2.492407
-2.492403
-2.492398
-2.492394
-2.492389
-2.492386
-2.492357
-2.492352
-2.492347
-2.492344
-2.492339
-2.492336
-2.492333
-2.492329
-2.492325
-2.492320
-2.492293
-2.492287
-2.492284
-2.492280
-2.492278
-2.492273
-2.492269
-2.492265
-2.492261
-2.492259
-2.492986
-2.492982
-2.492975
-2.492969
-2.492962
-2.492956
-2.492952
-2.492946
-2.492940
-2.492934
-2.492892
-2.492887
-2.492882
-2.492877
-2.492872
-2.492865
-2.492859
-2.492854
-2.492848
-2.492844
-2.492805
-2.492800
-2.492793
-2.492788
-2.492782
-2.492777
-2.492773
-2.492769
-2.492763
-2.492758
-2.492720
-2.492714
-2.492709
-2.492704
-2.492700
-2.492695
-2.492690
-2.492685
-2.492681
-2.492676
-2.492639
-2.492634
-2.492628
-2.492624
-2.492620
-2.492615
-2.492610
-2.492606
-2.492601
-2.492596
-2.492562
-2.492558
-2.492553
-2.492549
-2.492544
-2.492540
-2.492536
-2.492531
-2.492525
-2.492521
-2.492489
-2.492484
-2.492480
-2.492476
-2.492472
-2.492467
-2.492463
-2.492459
-2.492454
-2.492451
-2.492420
-2.492414
-2.492412
-2.492407
-2.492403
-2.492398
-2.492394
-2.492390
-2.492387
-2.492381
-2.492352
-2.492347
-2.492344
-2.492339
-2.492336
-2.492333
-2.492329
-2.492325
-2.492320
-2.492317
-2.492287
-2.492285
-2.492281
-2.492277
-2.492272
-2.492269
-2.492265
-2.492261
-2.492258
-2.492255
-2.492982
-2.492975
-2.492969
-2.492963
-2.492956
-2.492951
-2.492946
-2.492940
-2.492934
-2.492929
-2.492887
-2.492882
-2.492877
-2.492871
-2.492865
-2.492859
-2.492854
-2.492849
-2.492845
-2.492838
-2.492800
-2.492793
-2.492789
-2.492783
-2.492778
-2.492774
-2.492768
-2.492763
-2.492758
-2.492752
-2.492714
-2.492709
-2.492705
-2.492701
-2.492695
-2.492691
-2.492685
-2.492681
-2.492675
-2.492671
-2.492634
-2.492629
-2.492623
-2.492619
-2.492615
-2.492610
-2.492605
-2.492600
-2.492597
-2.492592
-2.492558
-2.492554
-2.492549
-2.492544
-2.492540
-2.492536
-2.492531
-2.492525
-2.492520
-2.492516
-2.492484
-2.492480
-2.492475
-2.492471
-2.492467
-2.492463
-2.492459
-2.492454
-2.492451
-2.492445
-2.492414
-2.492413
-2.492406
-2.492403
-2.492398
-2.492394
-2.492390
-2.492386
-2.492382
-2.492377
-2.492348
-2.492344
-2.492339
-2.492336
-2.492333
-2.492328
-2.492325
-2.492321
-2.492316