# vtk DataFile Version 3.0
PINN prediction t=41710.34375
ASCII
DATASET UNSTRUCTURED_GRID
POINTS 1000 float
0.000000 0.000000 0.000000
0.000000 0.000000 0.044444
0.000000 0.000000 0.088889
0.000000 0.000000 0.133333
0.000000 0.000000 0.177778
0.000000 0.000000 0.222222
0.000000 0.000000 0.266667
0.000000 0.000000 0.311111
0.000000 0.000000 0.355556
0.000000 0.000000 0.400000
0.000000 0.088889 0.000000
0.000000 0.088889 0.044444
0.000000 0.088889 0.088889
0.000000 0.088889 0.133333
0.000000 0.088889 0.177778
0.000000 0.088889 0.222222
0.000000 0.088889 0.266667
0.000000 0.088889 0.311111
0.000000 0.088889 0.355556
0.000000 0.088889 0.400000
0.000000 0.177778 0.000000
0.000000 0.177778 0.044444
0.000000 0.177778 0.088889
0.000000 0.177778 0.133333
0.000000 0.177778 0.177778
0.000000 0.177778 0.222222
0.000000 0.177778 0.266667
0.000000 0.177778 0.311111
0.000000 0.177778 0.355556
0.000000 0.177778 0.400000
0.000000 0.266667 0.000000
0.000000 0.266667 0.044444
0.000000 0.266667 0.088889
0.000000 0.266667 0.133333
0.000000 0.266667 0.177778
0.000000 0.266667 0.222222
0.000000 0.266667 0.266667
0.000000 0.266667 0.311111
0.000000 0.266667 0.355556
0.000000 0.266667 0.400000
0.000000 0.355556 0.000000
0.000000 0.355556 0.044444
0.000000 0.355556 0.088889
0.000000 0.355556 0.133333
0.000000 0.355556 0.177778
0.000000 0.355556 0.222222
0.000000 0.355556 0.266667
0.000000 0.355556 0.311111
0.000000 0.355556 0.355556
0.000000 0.355556 0.400000
0.000000 0.444444 0.000000
0.000000 0.444444 0.044444
0.000000 0.444444 0.088889
0.000000 0.444444 0.133333
0.000000 0.444444 0.177778
0.000000 0.444444 0.222222
0.000000 0.444444 0.266667
0.000000 0.444444 0.311111
0.000000 0.444444 0.355556
0.000000 0.444444 0.400000
0.000000 0.533333 0.000000
0.000000 0.533333 0.044444
0.000000 0.533333 0.088889
0.000000 0.533333 0.133333
0.000000 0.533333 0.177778
0.000000 0.533333 0.222222
0.000000 0.533333 0.266667
0.000000 0.533333 0.311111
0.000000 0.533333 0.355556
0.000000 0.533333 0.400000
0.000000 0.622222 0.000000
0.000000 0.622222 0.044444
0.000000 0.622222 0.088889
0.000000 0.622222 0.133333
0.000000 0.622222 0.177778
0.000000 0.622222 0.222222
0.000000 0.622222 0.266667
0.000000 0.622222 0.311111
0.000000 0.622222 0.355556
0.000000 0.622222 0.400000
0.000000 0.711111 0.000000
0.000000 0.711111 0.044444
0.000000 0.711111 0.088889
0.000000 0.711111 0.133333
0.000000 0.711111 0.177778
0.000000 0.711111 0.222222
0.000000 0.711111 0.266667
0.000000 0.711111 0.311111
0.000000 0.711111 0.355556
0.000000 0.711111 0.400000
0.000000 0.800000 0.000000
0.000000 0.800000 0.044444
0.000000 0.800000 0.088889
0.000000 0.800000 0.133333
0.000000 0.800000 0.177778
0.000000 0.800000 0.222222
0.000000 0.800000 0.266667
0.000000 0.800000 0.311111
0.000000 0.800000 0.355556
0.000000 0.800000 0.400000
0.044444 0.000000 0.000000
0.044444 0.000000 0.044444
0.044444 0.000000 0.088889
0.044444 0.000000 0.133333
0.044444 0.000000 0.177778
0.044444 0.000000 0.222222
0.044444 0.000000 0.266667
0.044444 0.000000 0.311111
0.044444 0.000000 0.355556
0.044444 0.000000 0.400000
0.044444 0.088889 0.000000
0.044444 0.088889 0.044444
0.044444 0.088889 0.088889
0.044444 0.088889 0.133333
0.044444 0.088889 0.177778
0.044444 0.088889 0.222222
0.044444 0.088889 0.266667
0.044444 0.088889 0.311111
0.044444 0.088889 0.355556
0.044444 0.088889 0.400000
0.044444 0.177778 0.000000
0.044444 0.177778 0.044444
0.044444 0.177778 0.088889
0.044444 0.177778 0.133333
0.044444 0.177778 0.177778
0.044444 0.177778 0.222222
0.044444 0.177778 0.266667
0.044444 0.177778 0.311111
0.044444 0.177778 0.355556
0.044444 0.177778 0.400000
0.044444 0.266667 0.000000
0.044444 0.266667 0.044444
0.044444 0.266667 0.088889
0.044444 0.266667 0.133333
0.044444 0.266667 0.177778
0.044444 0.266667 0.222222
0.044444 0.266667 0.266667
0.044444 0.266667 0.311111
0.044444 0.266667 0.355556
0.044444 0.266667 0.400000
0.044444 0.355556 0.000000
0.044444 0.355556 0.044444
0.044444 0.355556 0.088889
0.044444 0.355556 0.133333
0.044444 0.355556 0.177778
0.044444 0.355556 0.222222
0.044444 0.355556 0.266667
0.044444 0.355556 0.311111
0.044444 0.355556 0.355556
0.044444 0.355556 0.400000
0.044444 0.444444 0.000000
0.044444 0.444444 0.044444
0.044444 0.444444 0.088889
0.044444 0.444444 0.133333
0.044444 0.444444 0.177778
0.044444 0.444444 0.222222
0.044444 0.444444 0.266667
0.044444 0.444444 0.311111
0.044444 0.444444 0.355556
0.044444 0.444444 0.400000
0.044444 0.533333 0.000000
0.044444 0.533333 0.044444
0.044444 0.533333 0.088889
0.044444 0.533333 0.133333
0.044444 0.533333 0.177778
0.044444 0.533333 0.222222
0.044444 0.533333 0.266667
0.044444 0.533333 0.311111
0.044444 0.533333 0.355556
0.044444 0.533333 0.400000
0.044444 0.622222 0.000000
0.044444 0.622222 0.044444
0.044444 0.622222 0.088889
0.044444 0.622222 0.133333
0.044444 0.622222 0.177778
0.044444 0.622222 0.222222
0.044444 0.622222 0.266667
0.044444 0.622222 0.311111
0.044444 0.622222 0.355556
0.044444 0.622222 0.400000
0.044444 0.711111 0.000000
0.044444 0.711111 0.044444
0.044444 0.711111 0.088889
0.044444 0.711111 0.133333
0.044444 0.711111 0.177778
0.044444 0.711111 0.222222
0.044444 0.711111 0.266667
0.044444 0.711111 0.311111
0.044444 0.711111 0.355556
0.044444 0.711111 0.400000
0.044444 0.800000 0.000000
0.044444 0.800000 0.044444
0.044444 0.800000 0.088889
0.044444 0.800000 0.133333
0.044444 0.800000 0.177778
0.044444 0.800000 0.222222
0.044444 0.800000 0.266667
0.044444 0.800000 0.311111
0.044444 0.800000 0.355556
0.044444 0.800000 0.400000
0.088889 0.000000 0.000000
0.088889 0.000000 0.044444
0.088889 0.000000 0.088889
0.088889 0.000000 0.133333
0.088889 0.000000 0.177778
0.088889 0.000000 0.222222
0.088889 0.000000 0.266667
0.088889 0.000000 0.311111
0.088889 0.000000 0.355556
0.088889 0.000000 0.400000
0.088889 0.088889 0.000000
0.088889 0.088889 0.044444
0.088889 0.088889 0.088889
0.088889 0.088889 0.133333
0.088889 0.088889 0.177778
0.088889 0.088889 0.222222
0.088889 0.088889 0.266667
0.088889 0.088889 0.311111
0.088889 0.088889 0.355556
0.088889 0.088889 0.400000
0.088889 0.177778 0.000000
0.088889 0.177778 0.044444
0.088889 0.177778 0.088889
0.088889 0.177778 0.133333
0.088889 0.177778 0.177778
0.088889 0.177778 0.222222
0.088889 0.177778 0.266667
0.088889 0.177778 0.311111
0.088889 0.177778 0.355556
0.088889 0.177778 0.400000
0.088889 0.266667 0.000000
0.088889 0.266667 0.044444
0.088889 0.266667 0.088889
0.088889 0.266667 0.133333
0.088889 0.266667 0.177778
0.088889 0.266667 0.222222
0.088889 0.266667 0.266667
0.088889 0.266667 0.311111
0.088889 0.266667 0.355556
0.088889 0.266667 0.400000
0.088889 0.355556 0.000000
0.088889 0.355556 0.044444
0.088889 0.355556 0.088889
0.088889 0.355556 0.133333
0.088889 0.355556 0.177778
0.088889 0.355556 0.222222
0.088889 0.355556 0.266667
0.088889 0.355556 0.311111
0.088889 0.355556 0.355556
0.088889 0.355556 0.400000
0.088889 0.444444 0.000000
0.088889 0.444444 0.044444
0.088889 0.444444 0.088889
0.088889 0.444444 0.133333
0.088889 0.444444 0.177778
0.088889 0.444444 0.222222
0.088889 0.444444 0.266667
0.088889 0.444444 0.311111
0.088889 0.444444 0.355556
0.088889 0.444444 0.400000
0.088889 0.533333 0.000000
0.088889 0.533333 0.044444
0.088889 0.533333 0.088889
0.088889 0.533333 0.133333
0.088889 0.533333 0.177778
0.088889 0.533333 0.222222
0.088889 0.533333 0.266667
0.088889 0.533333 0.311111
0.088889 0.533333 0.355556
0.088889 0.533333 0.400000
0.088889 0.622222 0.000000
0.088889 0.622222 0.044444
0.088889 0.622222 0.088889
0.088889 0.622222 0.133333
0.088889 0.622222 0.177778
0.088889 0.622222 0.222222
0.088889 0.622222 0.266667
0.088889 0.622222 0.311111
0.088889 0.622222 0.355556
0.088889 0.622222 0.400000
0.088889 0.711111 0.000000
0.088889 0.711111 0.044444
0.088889 0.711111 0.088889
0.088889 0.711111 0.133333
0.088889 0.711111 0.177778
0.088889 0.711111 0.222222
0.088889 0.711111 0.266667
0.088889 0.711111 0.311111
0.088889 0.711111 0.355556
0.088889 0.711111 0.400000
0.088889 0.800000 0.000000
0.088889 0.800000 0.044444
0.088889 0.800000 0.088889
0.088889 0.800000 0.133333
0.088889 0.800000 0.177778
0.088889 0.800000 0.222222
0.088889 0.800000 0.266667
0.088889 0.800000 0.311111
0.088889 0.800000 0.355556
0.088889 0.800000 0.400000
0.133333 0.000000 0.000000
0.133333 0.000000 0.044444
0.133333 0.000000 0.088889
0.133333 0.000000 0.133333
0.133333 0.000000 0.177778
0.133333 0.000000 0.222222
0.133333 0.000000 0.266667
0.133333 0.000000 0.311111
0.133333 0.000000 0.355556
0.133333 0.000000 0.400000
0.133333 0.088889 0.000000
0.133333 0.088889 0.044444
0.133333 0.088889 0.088889
0.133333 0.088889 0.133333
0.133333 0.088889 0.177778
0.133333 0.088889 0.222222
0.133333 0.088889 0.266667
0.133333 0.088889 0.311111
0.133333 0.088889 0.355556
0.133333 0.088889 0.400000
0.133333 0.177778 0.000000
0.133333 0.177778 0.044444
0.133333 0.177778 0.088889
0.133333 0.177778 0.133333
0.133333 0.177778 0.177778
0.133333 0.177778 0.222222
0.133333 0.177778 0.266667
0.133333 0.177778 0.311111
0.133333 0.177778 0.355556
0.133333 0.177778 0.400000
0.133333 0.266667 0.000000
0.133333 0.266667 0.044444
0.133333 0.266667 0.088889
0.133333 0.266667 0.133333
0.133333 0.266667 0.177778
0.133333 0.266667 0.222222
0.133333 0.266667 0.266667
0.133333 0.266667 0.311111
0.133333 0.266667 0.355556
0.133333 0.266667 0.400000
0.133333 0.355556 0.000000
0.133333 0.355556 0.044444
0.133333 0.355556 0.088889
0.133333 0.355556 0.133333
0.133333 0.355556 0.177778
0.133333 0.355556 0.222222
0.133333 0.355556 0.266667
0.133333 0.355556 0.311111
0.133333 0.355556 0.355556
0.133333 0.355556 0.400000
0.133333 0.444444 0.000000
0.133333 0.444444 0.044444
0.133333 0.444444 0.088889
0.133333 0.444444 0.133333
0.133333 0.444444 0.177778
0.133333 0.444444 0.222222
0.133333 0.444444 0.266667
0.133333 0.444444 0.311111
0.133333 0.444444 0.355556
0.133333 0.444444 0.400000
0.133333 0.533333 0.000000
0.133333 0.533333 0.044444
0.133333 0.533333 0.088889
0.133333 0.533333 0.133333
0.133333 0.533333 0.177778
0.133333 0.533333 0.222222
[...]
POINT_DATA 1000
SCALARS Temperature float 1
LOOKUP_TABLE default
118.880981
118.881195
118.881348
118.881592
118.881653
118.881836
118.881989
118.882233
118.882294
118.882477
118.883759
118.883942
118.884064
118.884186
118.884369
118.884552
118.884735
118.884949
118.885101
118.885223
118.886475
118.886566
118.886719
118.886810
118.887054
118.887207
118.887390
118.887512
118.887604
118.887878
118.888916
118.889099
118.889313
118.889435
118.889557
118.889648
118.889862
118.890076
118.890198
118.890289
118.891449
118.891510
118.891693
118.891754
118.891937
118.892059
118.892181
118.892365
118.892487
118.892609
118.893707
118.893799
118.893951
118.894165
118.894318
118.894379
118.894562
118.894684
118.894836
118.894928
118.895844
118.896027
118.896210
118.896210
118.896362
118.896515
118.896698
118.896759
118.896851
118.896973
118.897949
118.898102
118.898163
118.898285
118.898407
118.898529
118.898773
118.898804
118.898987
118.899109
118.899994
118.900116
118.900208
118.900299
118.900452
118.900482
118.900665
118.900726
118.900909
118.901001
118.901886
118.901947
118.902130
118.902191
118.902344
118.902496
118.902649
118.902710
118.902802
118.902863
118.881195
118.881348
118.881592
118.881653
118.881836
118.881989
118.882202
118.882324
118.882477
118.882721
118.883942
118.884064
118.884186
118.884369
118.884552
118.884735
118.884949
118.885101
118.885223
118.885437
118.886566
118.886719
118.886810
118.887054
118.887207
118.887360
118.887543
118.887604
118.887848
118.888000
118.889130
118.889313
118.889435
118.889557
118.889648
118.889862
118.890076
118.890198
118.890289
118.890442
118.891479
118.891693
118.891724
118.891937
118.892059
118.892181
118.892395
118.892487
118.892639
118.892761
118.893799
118.893951
118.894196
118.894287
118.894379
118.894562
118.894714
118.894836
118.894928
118.895142
118.896027
118.896179
118.896210
118.896362
118.896515
118.896698
118.896759
118.896851
118.896973
118.897125
118.898102
118.898132
118.898254
118.898407
118.898529
118.898773
118.898804
118.898987
118.899109
118.899200
118.900116
118.900208
118.900299
118.900452
118.900482
118.900665
118.900726
118.900909
118.901001
118.901154
118.901978
118.902130
118.902191
118.902313
118.902496
118.902649
118.902710
118.902802
118.902863
118.903015
118.881348
118.881592
118.881653
118.881836
118.881989
118.882202
118.882324
118.882507
118.882721
118.882874
118.884064
118.884216
118.884369
118.884552
118.884766
118.884949
118.885101
118.885223
118.885437
118.885498
118.886688
118.886810
118.887054
118.887207
118.887360
118.887543
118.887604
118.887878
118.888000
118.888092
118.889313
118.889465
118.889587
118.889679
118.889862
118.890045
118.890167
118.890320
118.890472
118.890594
118.891693
118.891724
118.891937
118.892059
118.892212
118.892395
118.892487
118.892609
118.892792
118.892944
118.893951
118.894196
118.894287
118.894379
118.894531
118.894714
118.894836
118.894928
118.895142
118.895172
118.896179
118.896210
118.896362
118.896484
118.896698
118.896759
118.896851
118.896973
118.897125
118.897308
118.898132
118.898254
118.898407
118.898529
118.898773
118.898804
118.898987
118.899109
118.899200
118.899292
118.900208
118.900299
118.900452
118.900482
118.900665
118.900726
118.900909
118.901001
118.901154
118.901276
118.902130
118.902191
118.902313
118.902496
118.902649
118.902710
118.902771
118.902863
118.903015
118.903137
118.881561
118.881622
118.881866
118.881989
118.882202
118.882324
118.882477
118.882721
118.882874
118.883026
118.884186
118.884369
118.884552
118.884735
118.884949
118.885132
118.885223
118.885406
118.885468
118.885803
118.886810
118.887054
118.887177
118.887390
118.887543
118.887604
118.887878
118.888000
118.888092
118.888275
118.889465
118.889557
118.889679
118.889862
118.890045
118.890167
118.890289
118.890472
118.890594
118.890747
118.891693
118.891937
118.892059
118.892212
118.892395
118.892487
118.892609
118.892792
118.892944
118.893127
118.894165
118.894287
118.894379
118.894531
118.894745
118.894836
118.894928
118.895142
118.895203
118.895325
118.896210
118.896393
118.896484
118.896698
118.896759
118.896851
118.896973
118.897156
118.897308
118.897400
118.898224
118.898407
118.898529
118.898773
118.898804
118.898987
118.899078
118.899200
118.899323
118.899414
118.900299
118.900452
118.900482
118.900665
118.900726
118.900909
118.901031
118.901154
118.901276
118.901398
118.902191
118.902344
118.902496
118.902679
118.902679
118.902771
118.902863
118.903015
118.903137
118.903259
118.881622
118.881866
118.881989
118.882202
118.882355
118.882477
118.882721
118.882874
118.882996
118.883179
118.884369
118.884552
118.884735
118.884918
118.885132
118.885223
118.885376
118.885498
118.885803
118.885956
118.887054
118.887207
118.887390
118.887573
118.887604
118.887878
118.888000
118.888092
118.888275
118.888397
118.889557
118.889679
118.889893
118.890076
118.890167
118.890289
118.890472
118.890625
118.890747
118.890961
118.891937
118.892059
118.892212
118.892395
118.892487
118.892609
118.892792
118.892975
118.893127
118.893158
118.894257
118.894379
118.894531
118.894745
118.894836
118.894928
118.895142
118.895203
118.895325
118.895477
118.896393
118.896515
118.896698
118.896759
118.896851
118.897003
118.897156
118.897339
118.897400
118.897491
118.898407
118.898529
118.898773
118.898804
118.898987
118.899078
118.899200
118.899323
118.899384
118.899506
118.900421
118.900482
118.900665
118.900726
118.900940
118.901031
118.901154
118.901276
118.901398
118.901489
118.902344
118.902496
118.902679
118.902679
118.902802
118.902863
118.902985
118.903137
118.903259
118.903412
118.881836
118.882019
118.882233
118.882355
118.882507
118.882721
118.882874
118.883026
118.883179
118.883392
118.884552
118.884735
118.884918
118.885132
118.885223
118.885406
118.885498
118.885803
118.885956
118.886078
118.887207
118.887390
118.887573
118.887604
118.887878
118.888000
118.888092
118.888306
118.888428
118.888641
118.889679
118.889893
118.890045
118.890167
118.890320
118.890472
118.890625
118.890778
118.890961
118.891144
118.892059
118.892212
118.892426
118.892487
118.892639
118.892792
118.892975
118.893158
118.893158
118.893341
118.894379
118.894531
118.894714
118.894836
118.894928
118.895142
118.895203
118.895355
118.895508
118.895569
118.896515
118.896698
118.896759
118.896851
118.897003
118.897156
118.897339
118.897400
118.897491
118.897675
118.898560
118.898773
118.898804
118.898987
118.899139
118.899200
118.899323
118.899384
118.899506
118.899628
118.900482
118.900665
118.900726
118.900940
118.901031
118.901154
118.901276
118.901398
118.901489
118.901611
118.902496
118.902679
118.902710
118.902802
118.902893
118.902985
118.903107
118.903290
118.903412
118.903381
118.882019
118.882233
118.882355
118.882507
118.882721
118.882874
118.883026
118.883148
118.883392
118.883575
118.884735
118.884918
118.885132
118.885223
118.885406
118.885529
118.885773
118.885956
118.886078
118.886292
118.887360
118.887573
118.887604
118.887878
118.888000
118.888062
118.888306
118.888428
118.888641
118.888824
118.889923
118.890045
118.890167
118.890320
118.890472
118.890625
118.890778
118.890961
118.891144
118.891235
118.892212
118.892395
118.892487
118.892639
118.892792
118.892975
118.893158
118.893219
118.893341
118.893463
118.894531
118.894745
118.894836
118.894928
118.895142
118.895172
118.895325
118.895508
118.895599
118.895782
118.896698
118.896759
118.896851
118.896973
118.897156
118.897339
118.897400
118.897491
118.897675
118.897736
118.898773
118.898834
118.898987
118.899139
118.899200
118.899323
118.899384
118.899506
118.899628
118.899841
118.900665
118.900757
118.900940
118.901031
118.901154
118.901245
118.901398
118.901489
118.901611
118.901764
118.902679
118.902710
118.902802
118.902893
118.903015
118.903107
118.903290
118.903412
118.903381
118.903534
118.882233
118.882355
118.882477
118.882721
118.882874
118.883026
118.883179
118.883392
118.883575
118.883698
118.884918
118.885132
118.885254
118.885406
118.885529
118.885773
118.885956
118.886078
118.886292
118.886414
118.887543
118.887604
118.887848
118.888000
118.888092
118.888306
118.888428
118.888641
118.888824
118.888947
118.890076
118.890198
118.890289
118.890472
118.890594
118.890778
118.890961
118.891144
118.891235
118.891357
118.892395
118.892487
118.892670
118.892792
118.892975
118.893158
118.893188
118.893341
118.893463
118.893646
118.894745
118.894836
118.894928
118.895142
118.895172
118.895325
118.895477
118.895599
118.895813
118.895844
118.896759
118.896851
118.896973
118.897125
118.897339
118.897400
118.897522
118.897675
118.897736
118.897980
118.898834
118.898987
118.899109
118.899200
118.899323
118.899384
118.899506
118.899628
118.899811
118.899902
118.900757
118.900940
118.901031
118.901154
118.901245
118.901367
118.901489
118.901611
118.901764
118.901886
118.902740
118.902802
118.902893
118.903015
118.903107
118.903290
118.903412
118.903381
118.903534
118.903687
118.882355
118.882477
118.882721
118.882904
118.883026
118.883179
118.883392
118.883575
118.883759
118.883881
118.885132
118.885254
118.885406
118.885498
118.885773
118.885956
118.886078
118.886292
118.886414
118.886475
118.887604
118.887878
118.888000
118.888092
118.888336
118.888428
118.888641
118.888824
118.888947
118.889130
118.890228
118.890320
118.890472
118.890594
118.890778
118.890961
118.891144
118.891235
118.891357
118.891449
118.892487
118.892670
118.892792
118.893005
118.893158
118.893188
118.893341
118.893463
118.893646
118.893768
118.894836
118.894928
118.895142
118.895172
118.895355
118.895508
118.895599
118.895813
118.895844
118.895966
118.896851
118.897003
118.897156
118.897308
118.897400
118.897522
118.897675
118.897736
118.897919
118.898071
118.899017
118.899109
118.899200
118.899323
118.899384
118.899506
118.899628
118.899811
118.899933
118.900024
118.900940
118.901031
118.901154
118.901245
118.901367
118.901489
118.901611
118.901764
118.901886
118.901886
118.902802
118.902893
118.903015
118.903107
118.903290
118.903412
118.903381
118.903503
118.903687
118.903717
118.882477
118.882721
118.882874
118.883026
118.883179
118.883392
118.883575
118.883759
118.883911
118.884003
118.885254
118.885406
118.885498
118.885773
118.885956
118.886047
118.886292
118.886414
118.886475
118.886719
118.887878
118.888000
118.888092
118.888336
118.888428
118.888641
118.888824
118.888947
118.889130
118.889252
118.890320
118.890472
118.890656
118.890778
118.890961
118.891174
118.891205
118.891357
118.891479
118.891602
118.892670
118.892792
118.892944
118.893158
118.893188
118.893341
118.893463
118.893616
118.893768
118.893890
118.894928
118.895142
118.895172
118.895355
118.895508
118.895630
118.895813
118.895844
118.895966
118.896149
118.896973
118.897156
118.897308
118.897430
118.897522
118.897675
118.897736
118.897919
118.898041
118.898132
118.899109
118.899200
118.899323
118.899384
118.899506
118.899658
118.899811
118.899933
118.900024
118.900146
118.901031
118.901123
118.901245
118.901398
118.901520
118.901642
118.901764
118.901855
118.901917
118.902069
118.902863
118.903015
118.903107
118.903259
118.903412
118.903412
118.903503
118.903687
118.903748
118.903839

SCALARS Alpha float 1
LOOKUP_TABLE default
-2.491719
-2.491717
-2.491715
-2.491712
-2.491710
-2.491708
-2.491708
-2.491705
-2.491704
-2.491700
-2.491685
-2.491683
-2.491682
-2.491680
-2.491677
-2.491676
-2.491674
-2.491672
-2.491669
-2.491668
-2.491652
-2.491651
-2.491649
-2.491647
-2.491644
-2.491643
-2.491641
-2.491638
-2.491637
-2.491635
-2.491621
-2.491620
-2.491617
-2.491615
-2.491615
-2.491614
-2.491612
-2.491610
-2.491608
-2.491607
-2.491593
-2.491591
-2.491588
-2.491588
-2.491586
-2.491584
-2.491582
-2.491580
-2.491578
-2.491577
-2.491563
-2.491563
-2.491561
-2.491560
-2.491559
-2.491557
-2.491554
-2.491552
-2.491550
-2.491549
-2.491537
-2.491535
-2.491535
-2.491533
-2.491531
-2.491528
-2.491528
-2.491527
-2.491525
-2.491524
-2.491513
-2.491511
-2.491510
-2.491508
-2.491507
-2.491504
-2.491502
-2.491502
-2.491499
-2.491497
-2.491488
-2.491487
-2.491484
-2.491484
-2.491481
-2.491479
-2.491479
-2.491477
-2.491475
-2.491474
-2.491464
-2.491462
-2.491461
-2.491460
-2.491459
-2.491457
-2.491456
-2.491455
-2.491453
-2.491452
-2.491718
-2.491715
-2.491712
-2.491710
-2.491708
-2.491708
-2.491705
-2.491704
-2.491700
-2.491698
-2.491683
-2.491682
-2.491680
-2.491677
-2.491676
-2.491674
-2.491672
-2.491669
-2.491667
-2.491666
-2.491651
-2.491649
-2.491647
-2.491645
-2.491643
-2.491640
-2.491639
-2.491637
-2.491635
-2.491633
-2.491620
-2.491617
-2.491615
-2.491615
-2.491614
-2.491612
-2.491610
-2.491608
-2.491607
-2.491604
-2.491591
-2.491588
-2.491588
-2.491586
-2.491584
-2.491581
-2.491580
-2.491578
-2.491577
-2.491575
-2.491563
-2.491561
-2.491560
-2.491559
-2.491557
-2.491554
-2.491552
-2.491550
-2.491549
-2.491548
-2.491535
-2.491534
-2.491533
-2.491531
-2.491528
-2.491528
-2.491527
-2.491525
-2.491523
-2.491522
-2.491511
-2.491510
-2.491508
-2.491506
-2.491504
-2.491502
-2.491502
-2.491499
-2.491497
-2.491497
-2.491487
-2.491484
-2.491484
-2.491481
-2.491480
-2.491479
-2.491477
-2.491476
-2.491475
-2.491473
-2.491462
-2.491461
-2.491460
-2.491458
-2.491457
-2.491457
-2.491455
-2.491453
-2.491452
-2.491451
-2.491715
-2.491712
-2.491711
-2.491708
-2.491708
-2.491705
-2.491704
-2.491701
-2.491699
-2.491696
-2.491681
-2.491680
-2.491677
-2.491676
-2.491674
-2.491672
-2.491669
-2.491667
-2.491666
-2.491664
-2.491649
-2.491647
-2.491645
-2.491643
-2.491640
-2.491639
-2.491637
-2.491635
-2.491633
-2.491631
-2.491617
-2.491615
-2.491615
-2.491614
-2.491612
-2.491610
-2.491607
-2.491606
-2.491604
-2.491602
-2.491588
-2.491588
-2.491586
-2.491583
-2.491581
-2.491580
-2.491578
-2.491577
-2.491575
-2.491574
-2.491561
-2.491560
-2.491558
-2.491556
-2.491554
-2.491552
-2.491551
-2.491549
-2.491548
-2.491545
-2.491534
-2.491533
-2.491531
-2.491529
-2.491528
-2.491527
-2.491524
-2.491523
-2.491522
-2.491520
-2.491510
-2.491508
-2.491506
-2.491504
-2.491502
-2.491502
-2.491499
-2.491497
-2.491497
-2.491495
-2.491484
-2.491484
-2.491482
-2.491480
-2.491479
-2.491477
-2.491476
-2.491475
-2.491473
-2.491471
-2.491461
-2.491460
-2.491458
-2.491457
-2.491457
-2.491455
-2.491454
-2.491452
-2.491451
-2.491448
-2.491712
-2.491710
-2.491708
-2.491708
-2.491705
-2.491704
-2.491701
-2.491699
-2.491696
-2.491694
-2.491679
-2.491677
-2.491675
-2.491674
-2.491672
-2.491669
-2.491667
-2.491666
-2.491663
-2.491662
-2.491647
-2.491645
-2.491643
-2.491640
-2.491638
-2.491637
-2.491635
-2.491633
-2.491631
-2.491628
-2.491616
-2.491615
-2.491614
-2.491612
-2.491610
-2.491607
-2.491606
-2.491604
-2.491602
-2.491600
-2.491588
-2.491586
-2.491584
-2.491581
-2.491580
-2.491578
-2.491577
-2.491575
-2.491573
-2.491572
-2.491560
-2.491558
-2.491556
-2.491554
-2.491552
-2.491551
-2.491549
-2.491548
-2.491545
-2.491544
-2.491533
-2.491531
-2.491529
-2.491528
-2.491527
-2.491524
-2.491523
-2.491522
-2.491520
-2.491518
-2.491508
-2.491507
-2.491504
-2.491502
-2.491501
-2.491499
-2.491497
-2.491497
-2.491495
-2.491494
-2.491483
-2.491482
-2.491480
-2.491479
-2.491477
-2.491476
-2.491475
-2.491473
-2.491471
-2.491469
-2.491460
-2.491457
-2.491457
-2.491457
-2.491455
-2.491454
-2.491452
-2.491451
-2.491448
-2.491447
-2.491710
-2.491708
-2.491708
-2.491705
-2.491703
-2.491701
-2.491699
-2.491697
-2.491694
-2.491692
-2.491677
-2.491675
-2.491674
-2.491672
-2.491669
-2.491668
-2.491666
-2.491663
-2.491662
-2.491659
-2.491645
-2.491643
-2.491640
-2.491638
-2.491637
-2.491635
-2.491633
-2.491631
-2.491628
-2.491628
-2.491615
-2.491614
-2.491612
-2.491610
-2.491607
-2.491606
-2.491603
-2.491602
-2.491600
-2.491598
-2.491586
-2.491584
-2.491581
-2.491580
-2.491578
-2.491577
-2.491575
-2.491573
-2.491572
-2.491570
-2.491558
-2.491556
-2.491554
-2.491552
-2.491550
-2.491549
-2.491548
-2.491545
-2.491544
-2.491543
-2.491531
-2.491529
-2.491528
-2.491527
-2.491524
-2.491523
-2.491522
-2.491520
-2.491518
-2.491517
-2.491507
-2.491504
-2.491502
-2.491501
-2.491499
-2.491497
-2.491497
-2.491495
-2.491494
-2.491492
-2.491482
-2.491480
-2.491479
-2.491477
-2.491475
-2.491475
-2.491473
-2.491471
-2.491469
-2.491468
-2.491457
-2.491457
-2.491457
-2.491455
-2.491454
-2.491452
-2.491451
-2.491448
-2.491447
-2.491446
-2.491709
-2.491708
-2.491705
-2.491703
-2.491700
-2.491699
-2.491697
-2.491694
-2.491692
-2.491689
-2.491675
-2.491674
-2.491671
-2.491669
-2.491667
-2.491666
-2.491663
-2.491661
-2.491660
-2.491657
-2.491643
-2.491641
-2.491638
-2.491637
-2.491635
-2.491633
-2.491631
-2.491628
-2.491628
-2.491626
-2.491614
-2.491612
-2.491609
-2.491607
-2.491606
-2.491603
-2.491602
-2.491600
-2.491598
-2.491596
-2.491584
-2.491581
-2.491580
-2.491578
-2.491576
-2.491575
-2.491573
-2.491572
-2.491570
-2.491568
-2.491556
-2.491554
-2.491552
-2.491550
-2.491550
-2.491548
-2.491545
-2.491544
-2.491543
-2.491541
-2.491529
-2.491527
-2.491527
-2.491524
-2.491523
-2.491522
-2.491520
-2.491518
-2.491517
-2.491516
-2.491504
-2.491502
-2.491501
-2.491499
-2.491497
-2.491496
-2.491495
-2.491494
-2.491492
-2.491491
-2.491480
-2.491479
-2.491477
-2.491475
-2.491475
-2.491472
-2.491471
-2.491469
-2.491468
-2.491467
-2.491457
-2.491456
-2.491455
-2.491454
-2.491452
-2.491451
-2.491449
-2.491448
-2.491446
-2.491446
-2.491708
-2.491705
-2.491703
-2.491701
-2.491699
-2.491697
-2.491694
-2.491692
-2.491689
-2.491687
-2.491674
-2.491671
-2.491669
-2.491667
-2.491666
-2.491664
-2.491661
-2.491660
-2.491657
-2.491655
-2.491640
-2.491638
-2.491637
-2.491635
-2.491633
-2.491631
-2.491628
-2.491628
-2.491626
-2.491624
-2.491612
-2.491609
-2.491607
-2.491606
-2.491603
-2.491602
-2.491600
-2.491598
-2.491596
-2.491594
-2.491581
-2.491580
-2.491578
-2.491576
-2.491575
-2.491573
-2.491572
-2.491570
-2.491568
-2.491567
-2.491554
-2.491552
-2.491550
-2.491549
-2.491548
-2.491545
-2.491544
-2.491543
-2.491541
-2.491539
-2.491527
-2.491527
-2.491524
-2.491523
-2.491522
-2.491519
-2.491518
-2.491517
-2.491516
-2.491514
-2.491502
-2.491501
-2.491499
-2.491497
-2.491496
-2.491495
-2.491494
-2.491492
-2.491491
-2.491489
-2.491479
-2.491477
-2.491475
-2.491475
-2.491472
-2.491471
-2.491469
-2.491468
-2.491467
-2.491466
-2.491456
-2.491455
-2.491454
-2.491452
-2.491451
-2.491449
-2.491448
-2.491446
-2.491446
-2.491444
-2.491705
-2.491703
-2.491701
-2.491699
-2.491696
-2.491694
-2.491692
-2.491689
-2.491687
-2.491686
-2.491671
-2.491669
-2.491667
-2.491666
-2.491663
-2.491661
-2.491660
-2.491657
-2.491655
-2.491653
-2.491639
-2.491637
-2.491635
-2.491632
-2.491631
-2.491628
-2.491628
-2.491626
-2.491624
-2.491623
-2.491609
-2.491607
-2.491606
-2.491603
-2.491602
-2.491601
-2.491598
-2.491596
-2.491594
-2.491592
-2.491580
-2.491578
-2.491576
-2.491575
-2.491573
-2.491572
-2.491570
-2.491567
-2.491567
-2.491564
-2.491552
-2.491550
-2.491549
-2.491548
-2.491545
-2.491544
-2.491543
-2.491541
-2.491539
-2.491538
-2.491526
-2.491524
-2.491523
-2.491522
-2.491519
-2.491518
-2.491517
-2.491516
-2.491514
-2.491512
-2.491501
-2.491499
-2.491497
-2.491496
-2.491495
-2.491494
-2.491492
-2.491492
-2.491489
-2.491488
-2.491477
-2.491475
-2.491475
-2.491472
-2.491471
-2.491469
-2.491468
-2.491467
-2.491466
-2.491464
-2.491454
-2.491454
-2.491452
-2.491451
-2.491448
-2.491448
-2.491446
-2.491446
-2.491444
-2.491442
-2.491703
-2.491701
-2.491698
-2.491696
-2.491694
-2.491692
-2.491689
-2.491687
-2.491686
-2.491684
-2.491669
-2.491667
-2.491666
-2.491664
-2.491661
-2.491660
-2.491657
-2.491655
-2.491653
-2.491652
-2.491637
-2.491635
-2.491633
-2.491631
-2.491628
-2.491628
-2.491626
-2.491624
-2.491623
-2.491621
-2.491607
-2.491606
-2.491603
-2.491602
-2.491601
-2.491598
-2.491596
-2.491593
-2.491593
-2.491591
-2.491578
-2.491576
-2.491575
-2.491573
-2.491572
-2.491570
-2.491567
-2.491567
-2.491564
-2.491564
-2.491550
-2.491549
-2.491548
-2.491545
-2.491544
-2.491543
-2.491541
-2.491539
-2.491538
-2.491535
-2.491524
-2.491523
-2.491522
-2.491520
-2.491518
-2.491517
-2.491516
-2.491514
-2.491512
-2.491511
-2.491499
-2.491497
-2.491496
-2.491495
-2.491494
-2.491492
-2.491492
-2.491489
-2.491488
-2.491487
-2.491475
-2.491475
-2.491472
-2.491471
-2.491469
-2.491468
-2.491467
-2.491466
-2.491464