# vtk DataFile Version 3.0
PINN prediction t=20855.171875
ASCII
DATASET UNSTRUCTURED_GRID
POINTS 1000 float
0.000000 0.000000 0.000000
0.000000 0.000000 0.044444
0.000000 0.000000 0.088889
0.000000 0.000000 0.133333
0.000000 0.000000 0.177778
0.000000 0.000000 0.222222
0.000000 0.000000 0.266667
0.000000 0.000000 0.311111
0.000000 0.000000 0.355556
0.000000 0.000000 0.400000
0.000000 0.088889 0.000000
0.000000 0.088889 0.044444
0.000000 0.088889 0.088889
0.000000 0.088889 0.133333
0.000000 0.088889 0.177778
0.000000 0.088889 0.222222
0.000000 0.088889 0.266667
0.000000 0.088889 0.311111
0.000000 0.088889 0.355556
0.000000 0.088889 0.400000
0.000000 0.177778 0.000000
0.000000 0.177778 0.044444
0.000000 0.177778 0.088889
0.000000 0.177778 0.133333
0.000000 0.177778 0.177778
0.000000 0.177778 0.222222
0.000000 0.177778 0.266667
0.000000 0.177778 0.311111
0.000000 0.177778 0.355556
0.000000 0.177778 0.400000
0.000000 0.266667 0.000000
0.000000 0.266667 0.044444
0.000000 0.266667 0.088889
0.000000 0.266667 0.133333
0.000000 0.266667 0.177778
0.000000 0.266667 0.222222
0.000000 0.266667 0.266667
0.000000 0.266667 0.311111
0.000000 0.266667 0.355556
0.000000 0.266667 0.400000
0.000000 0.355556 0.000000
0.000000 0.355556 0.044444
0.000000 0.355556 0.088889
0.000000 0.355556 0.133333
0.000000 0.355556 0.177778
0.000000 0.355556 0.222222
0.000000 0.355556 0.266667
0.000000 0.355556 0.311111
0.000000 0.355556 0.355556
0.000000 0.355556 0.400000
0.000000 0.444444 0.000000
0.000000 0.444444 0.044444
0.000000 0.444444 0.088889
0.000000 0.444444 0.133333
0.000000 0.444444 0.177778
0.000000 0.444444 0.222222
0.000000 0.444444 0.266667
0.000000 0.444444 0.311111
0.000000 0.444444 0.355556
0.000000 0.444444 0.400000
0.000000 0.533333 0.000000
0.000000 0.533333 0.044444
0.000000 0.533333 0.088889
0.000000 0.533333 0.133333
0.000000 0.533333 0.177778
0.000000 0.533333 0.222222
0.000000 0.533333 0.266667
0.000000 0.533333 0.311111
0.000000 0.533333 0.355556
0.000000 0.533333 0.400000
0.000000 0.622222 0.000000
0.000000 0.622222 0.044444
0.000000 0.622222 0.088889
0.000000 0.622222 0.133333
0.000000 0.622222 0.177778
0.000000 0.622222 0.222222
0.000000 0.622222 0.266667
0.000000 0.622222 0.311111
0.000000 0.622222 0.355556
0.000000 0.622222 0.400000
0.000000 0.711111 0.000000
0.000000 0.711111 0.044444
0.000000 0.711111 0.088889
0.000000 0.711111 0.133333
0.000000 0.711111 0.177778
0.000000 0.711111 0.222222
0.000000 0.711111 0.266667
0.000000 0.711111 0.311111
0.000000 0.711111 0.355556
0.000000 0.711111 0.400000
0.000000 0.800000 0.000000
0.000000 0.800000 0.044444
0.000000 0.800000 0.088889
0.000000 0.800000 0.133333
0.000000 0.800000 0.177778
0.000000 0.800000 0.222222
0.000000 0.800000 0.266667
0.000000 0.800000 0.311111
0.000000 0.800000 0.355556
0.000000 0.800000 0.400000
0.044444 0.000000 0.000000
0.044444 0.000000 0.044444
0.044444 0.000000 0.088889
0.044444 0.000000 0.133333
0.044444 0.000000 0.177778
0.044444 0.000000 0.222222
0.044444 0.000000 0.266667
0.044444 0.000000 0.311111
0.044444 0.000000 0.355556
0.044444 0.000000 0.400000
0.044444 0.088889 0.000000
0.044444 0.088889 0.044444
0.044444 0.088889 0.088889
0.044444 0.088889 0.133333
0.044444 0.088889 0.177778
0.044444 0.088889 0.222222
0.044444 0.088889 0.266667
0.044444 0.088889 0.311111
0.044444 0.088889 0.355556
0.044444 0.088889 0.400000
0.044444 0.177778 0.000000
0.044444 0.177778 0.044444
0.044444 0.177778 0.088889
0.044444 0.177778 0.133333
0.044444 0.177778 0.177778
0.044444 0.177778 0.222222
0.044444 0.177778 0.266667
0.044444 0.177778 0.311111
0.044444 0.177778 0.355556
0.044444 0.177778 0.400000
0.044444 0.266667 0.000000
0.044444 0.266667 0.044444
0.044444 0.266667 0.088889
0.044444 0.266667 0.133333
0.044444 0.266667 0.177778
0.044444 0.266667 0.222222
0.044444 0.266667 0.266667
0.044444 0.266667 0.311111
0.044444 0.266667 0.355556
0.044444 0.266667 0.400000
0.044444 0.355556 0.000000
0.044444 0.355556 0.044444
0.044444 0.355556 0.088889
0.044444 0.355556 0.133333
0.044444 0.355556 0.177778
0.044444 0.355556 0.222222
0.044444 0.355556 0.266667
0.044444 0.355556 0.311111
0.044444 0.355556 0.355556
0.044444 0.355556 0.400000
0.044444 0.444444 0.000000
0.044444 0.444444 0.044444
0.044444 0.444444 0.088889
0.044444 0.444444 0.133333
0.044444 0.444444 0.177778
0.044444 0.444444 0.222222
0.044444 0.444444 0.266667
0.044444 0.444444 0.311111
0.044444 0.444444 0.355556
0.044444 0.444444 0.400000
0.044444 0.533333 0.000000
0.044444 0.533333 0.044444
0.044444 0.533333 0.088889
0.044444 0.533333 0.133333
0.044444 0.533333 0.177778
0.044444 0.533333 0.222222
0.044444 0.533333 0.266667
0.044444 0.533333 0.311111
0.044444 0.533333 0.355556
0.044444 0.533333 0.400000
0.044444 0.622222 0.000000
0.044444 0.622222 0.044444
0.044444 0.622222 0.088889
0.044444 0.622222 0.133333
0.044444 0.622222 0.177778
0.044444 0.622222 0.222222
0.044444 0.622222 0.266667
0.044444 0.622222 0.311111
0.044444 0.622222 0.355556
0.044444 0.622222 0.400000
0.044444 0.711111 0.000000
0.044444 0.711111 0.044444
0.044444 0.711111 0.088889
0.044444 0.711111 0.133333
0.044444 0.711111 0.177778
0.044444 0.711111 0.222222
0.044444 0.711111 0.266667
0.044444 0.711111 0.311111
0.044444 0.711111 0.355556
0.044444 0.711111 0.400000
0.044444 0.800000 0.000000
0.044444 0.800000 0.044444
0.044444 0.800000 0.088889
0.044444 0.800000 0.133333
0.044444 0.800000 0.177778
0.044444 0.800000 0.222222
0.044444 0.800000 0.266667
0.044444 0.800000 0.311111
0.044444 0.800000 0.355556
0.044444 0.800000 0.400000
0.088889 0.000000 0.000000
0.088889 0.000000 0.044444
0.088889 0.000000 0.088889
0.088889 0.000000 0.133333
0.088889 0.000000 0.177778
0.088889 0.000000 0.222222
0.088889 0.000000 0.266667
0.088889 0.000000 0.311111
0.088889 0.000000 0.355556
0.088889 0.000000 0.400000
0.088889 0.088889 0.000000
0.088889 0.088889 0.044444
0.088889 0.088889 0.088889
0.088889 0.088889 0.133333
0.088889 0.088889 0.177778
0.088889 0.088889 0.222222
0.088889 0.088889 0.266667
0.088889 0.088889 0.311111
0.088889 0.088889 0.355556
0.088889 0.088889 0.400000
0.088889 0.177778 0.000000
0.088889 0.177778 0.044444
0.088889 0.177778 0.088889
0.088889 0.177778 0.133333
0.088889 0.177778 0.177778
0.088889 0.177778 0.222222
0.088889 0.177778 0.266667
0.088889 0.177778 0.311111
0.088889 0.177778 0.355556
0.088889 0.177778 0.400000
0.088889 0.266667 0.000000
0.088889 0.266667 0.044444
0.088889 0.266667 0.088889
0.088889 0.266667 0.133333
0.088889 0.266667 0.177778
0.088889 0.266667 0.222222
0.088889 0.266667 0.266667
0.088889 0.266667 0.311111
0.088889 0.266667 0.355556
0.088889 0.266667 0.400000
0.088889 0.355556 0.000000
0.088889 0.355556 0.044444
0.088889 0.355556 0.088889
0.088889 0.355556 0.133333
0.088889 0.355556 0.177778
0.088889 0.355556 0.222222
0.088889 0.355556 0.266667
0.088889 0.355556 0.311111
0.088889 0.355556 0.355556
0.088889 0.355556 0.400000
0.088889 0.444444 0.000000
0.088889 0.444444 0.044444
0.088889 0.444444 0.088889
0.088889 0.444444 0.133333
0.088889 0.444444 0.177778
0.088889 0.444444 0.222222
0.088889 0.444444 0.266667
0.088889 0.444444 0.311111
0.088889 0.444444 0.355556
0.088889 0.444444 0.400000
0.088889 0.533333 0.000000
0.088889 0.533333 0.044444
0.088889 0.533333 0.088889
0.088889 0.533333 0.133333
0.088889 0.533333 0.177778
0.088889 0.533333 0.222222
0.088889 0.533333 0.266667
0.088889 0.533333 0.311111
0.088889 0.533333 0.355556
0.088889 0.533333 0.400000
0.088889 0.622222 0.000000
0.088889 0.622222 0.044444
0.088889 0.622222 0.088889
0.088889 0.622222 0.133333
0.088889 0.622222 0.177778
0.088889 0.622222 0.222222
0.088889 0.622222 0.266667
0.088889 0.622222 0.311111
0.088889 0.622222 0.355556
0.088889 0.622222 0.400000
0.088889 0.711111 0.000000
0.088889 0.711111 0.044444
0.088889 0.711111 0.088889
0.088889 0.711111 0.133333
0.088889 0.711111 0.177778
0.088889 0.711111 0.222222
0.088889 0.711111 0.266667
0.088889 0.711111 0.311111
0.088889 0.711111 0.355556
0.088889 0.711111 0.400000
0.088889 0.800000 0.000000
0.088889 0.800000 0.044444
0.088889 0.800000 0.088889
0.088889 0.800000 0.133333
0.088889 0.800000 0.177778
0.088889 0.800000 0.222222
0.088889 0.800000 0.266667
0.088889 0.800000 0.311111
0.088889 0.800000 0.355556
0.088889 0.800000 0.400000
0.133333 0.000000 0.000000
0.133333 0.000000 0.044444
0.133333 0.000000 0.088889
0.133333 0.000000 0.133333
0.133333 0.000000 0.177778
0.133333 0.000000 0.222222
0.133333 0.000000 0.266667
0.133333 0.000000 0.311111
0.133333 0.000000 0.355556
0.133333 0.000000 0.400000
0.133333 0.088889 0.000000
0.133333 0.088889 0.044444
0.133333 0.088889 0.088889
0.133333 0.088889 0.133333
0.133333 0.088889 0.177778
0.133333 0.088889 0.222222
0.133333 0.088889 0.266667
0.133333 0.088889 0.311111
0.133333 0.088889 0.355556
0.133333 0.088889 0.400000
0.133333 0.177778 0.000000
0.133333 0.177778 0.044444
0.133333 0.177778 0.088889
0.133333 0.177778 0.133333
0.133333 0.177778 0.177778
0.133333 0.177778 0.222222
0.133333 0.177778 0.266667
0.133333 0.177778 0.311111
0.133333 0.177778 0.355556
0.133333 0.177778 0.400000
0.133333 0.266667 0.000000
0.133333 0.266667 0.044444
0.133333 0.266667 0.088889
0.133333 0.266667 0.133333
0.133333 0.266667 0.177778
0.133333 0.266667 0.222222
0.133333 0.266667 0.266667
0.133333 0.266667 0.311111
0.133333 0.266667 0.355556
0.133333 0.266667 0.400000
0.133333 0.355556 0.000000
0.133333 0.355556 0.044444
0.133333 0.355556 0.088889
0.133333 0.355556 0.133333
0.133333 0.355556 0.177778
0.133333 0.355556 0.222222
0.133333 0.355556 0.266667
0.133333 0.355556 0.311111
0.133333 0.355556 0.355556
0.133333 0.355556 0.400000
0.133333 0.444444 0.000000
0.133333 0.444444 0.044444
0.133333 0.444444 0.088889
0.133333 0.444444 0.133333
0.133333 0.444444 0.177778
0.133333 0.444444 0.222222
0.133333 0.444444 0.266667
0.133333 0.444444 0.311111
0.133333 0.444444 0.355556
0.133333 0.444444 0.400000
0.133333 0.533333 0.000000
0.133333 0.533333 0.044444
0.133333 0.533333 0.088889
0.133333 0.533333 0.133333
0.133333 0.533333 0.177778
0.133333 0.533333 0.222222
[...]
POINT_DATA 1000
SCALARS Temperature float 1
LOOKUP_TABLE default
116.822205
116.828278
116.834198
116.840088
116.846161
116.852051
116.857941
116.863922
116.869629
116.875580
116.918488
116.924286
116.929993
116.935760
116.941315
116.946991
116.952728
116.958405
116.963898
116.969574
117.010590
117.015991
117.021545
117.026886
117.032318
117.037811
117.043152
117.048553
117.053986
117.059326
117.098450
117.103668
117.108917
117.114166
117.119293
117.124481
117.129669
117.134796
117.139862
117.144958
117.182434
117.187408
117.192474
117.197449
117.202362
117.207367
117.212280
117.217224
117.221985
117.227020
117.262726
117.267487
117.272278
117.277008
117.281708
117.286438
117.291107
117.295868
117.300568
117.305237
117.339386
117.343903
117.348450
117.353027
117.357635
117.362122
117.366577
117.371094
117.375488
117.379974
117.412628
117.417023
117.421295
117.425690
117.430054
117.434387
117.438660
117.442841
117.447174
117.451385
117.482727
117.486877
117.490997
117.495117
117.499237
117.503265
117.507355
117.511505
117.515594
117.519745
117.549408
117.553406
117.557281
117.561310
117.565308
117.569183
117.573029
117.577057
117.580902
117.584900
116.828339
116.834259
116.840210
116.846222
116.852112
116.857971
116.863953
116.869720
116.875641
116.881470
116.924347
116.929993
116.935822
116.941376
116.947021
116.952789
116.958405
116.963959
116.969574
116.975220
117.016083
117.021606
117.026978
117.032440
117.037872
117.043243
117.048615
117.054047
117.059357
117.064667
117.103699
117.108887
117.114166
117.119293
117.124603
117.129700
117.134857
117.139923
117.145020
117.150238
117.187469
117.192566
117.197479
117.202423
117.207428
117.212341
117.217224
117.222076
117.227051
117.231842
117.267578
117.272308
117.277100
117.281738
117.286469
117.291199
117.295959
117.300568
117.305328
117.309998
117.343994
117.348541
117.353058
117.357635
117.362183
117.366577
117.371124
117.375580
117.380035
117.384430
117.417053
117.421387
117.425720
117.430145
117.434357
117.438690
117.442932
117.447235
117.451477
117.455688
117.486908
117.490936
117.495117
117.499329
117.503326
117.507355
117.511536
117.515656
117.519806
117.523773
117.553436
117.557343
117.561340
117.565369
117.569275
117.573090
117.577057
117.580872
117.584900
117.588776
116.834290
116.840271
116.846283
116.852173
116.858093
116.863983
116.869843
116.875732
116.881561
116.887482
116.930054
116.935852
116.941498
116.947144
116.952820
116.958466
116.963989
116.969666
116.975250
116.980927
117.021576
117.027008
117.032501
117.037964
117.043304
117.048676
117.054077
117.059387
117.064758
117.069946
117.108978
117.114227
117.119324
117.124664
117.129791
117.134796
117.139984
117.145081
117.150299
117.155304
117.192596
117.197540
117.202484
117.207550
117.212341
117.217316
117.222168
117.227142
117.231873
117.236755
117.272369
117.277130
117.281799
117.286530
117.291321
117.296051
117.300690
117.305298
117.309998
117.314667
117.348633
117.353088
117.357697
117.362213
117.366669
117.371094
117.375641
117.380096
117.384521
117.388947
117.421417
117.425812
117.430145
117.434418
117.438690
117.442993
117.447266
117.451538
117.455780
117.459991
117.491089
117.495209
117.499390
117.503357
117.507416
117.511627
117.515717
117.519836
117.523804
117.527832
117.557373
117.561462
117.565369
117.569305
117.573120
117.577179
117.580963
117.584961
117.588806
117.592712
116.840363
116.846313
116.852234
116.858185
116.864075
116.869843
116.875824
116.881592
116.887543
116.893280
116.935883
116.941559
116.947235
116.952820
116.958466
116.964172
116.969757
116.975311
116.980988
116.986359
117.027130
117.032532
117.037994
117.043365
117.048737
117.054138
117.059418
117.064758
117.070038
117.075348
117.114288
117.119385
117.124634
117.129791
117.134918
117.140045
117.145172
117.150360
117.155365
117.160492
117.197601
117.202545
117.207520
117.212433
117.217316
117.222168
117.227203
117.231903
117.236847
117.241669
117.277191
117.281891
117.286621
117.291351
117.296143
117.300690
117.305328
117.310089
117.314697
117.319366
117.353180
117.357727
117.362335
117.366760
117.371185
117.375732
117.380157
117.384552
117.388977
117.393463
117.425934
117.430145
117.434448
117.438721
117.442993
117.447327
117.451569
117.455780
117.460022
117.464325
117.495270
117.499390
117.503387
117.507477
117.511658
117.515717
117.519928
117.523834
117.527924
117.531952
117.561493
117.565399
117.569397
117.573181
117.577179
117.581085
117.585052
117.588806
117.592743
117.596405
116.846405
116.852325
116.858185
116.864105
116.869904
116.875824
116.881714
116.887543
116.893402
116.899139
116.941589
116.947296
116.952911
116.958588
116.964203
116.969818
116.975311
116.980957
116.986481
116.992096
117.032623
117.037994
117.043365
117.048767
117.054230
117.059540
117.064850
117.070068
117.075409
117.080780
117.119476
117.124756
117.129822
117.134979
117.140076
117.145264
117.150299
117.155457
117.160553
117.165649
117.202545
117.207520
117.212463
117.217346
117.222260
117.227142
117.231934
117.236969
117.241760
117.246613
117.282013
117.286713
117.291412
117.296112
117.300781
117.305450
117.310120
117.314728
117.319427
117.324005
117.357788
117.362396
117.366760
117.371307
117.375824
117.380219
117.384674
117.389038
117.393433
117.397858
117.430206
117.434509
117.438751
117.442993
117.447357
117.451630
117.455872
117.460052
117.464355
117.468658
117.499420
117.503448
117.507568
117.511688
117.515778
117.519928
117.523895
117.527985
117.531952
117.536011
117.565460
117.569427
117.573242
117.577179
117.581085
117.585052
117.588837
117.592804
117.596466
117.600433
116.852356
116.858246
116.864197
116.869965
116.875977
116.881775
116.887604
116.893463
116.899139
116.904999
116.947418
116.952911
116.958588
116.964203
116.969940
116.975433
116.981049
116.986603
116.992188
116.997772
117.038055
117.043488
117.048828
117.054260
117.059601
117.064911
117.070190
117.075500
117.080780
117.086121
117.124786
117.129944
117.135101
117.140198
117.145325
117.150360
117.155518
117.160553
117.165680
117.170685
117.207611
117.212524
117.217407
117.222260
117.227203
117.231964
117.236969
117.241852
117.246674
117.251465
117.286713
117.291443
117.296112
117.300873
117.305573
117.310150
117.314819
117.319458
117.324005
117.328644
117.362335
117.366821
117.371307
117.375824
117.380280
117.384705
117.389099
117.393524
117.397949
117.402313
117.434570
117.438782
117.443146
117.447357
117.451752
117.455872
117.460205
117.464447
117.468658
117.472931
117.503510
117.507660
117.511749
117.515808
117.519989
117.523956
117.527985
117.532074
117.536041
117.540039
117.569427
117.573273
117.577209
117.581116
117.585114
117.588837
117.592865
117.596649
117.600494
117.604340
116.858368
116.864227
116.870087
116.876007
116.881866
116.887665
116.893555
116.899170
116.905060
116.910858
116.952972
116.958649
116.964264
116.970001
116.975494
116.981110
116.986603
116.992279
116.997772
117.003174
117.043549
117.048889
117.054260
117.059692
117.064941
117.070312
117.075562
117.080872
117.086060
117.091461
117.129974
117.135101
117.140289
117.145355
117.150391
117.155579
117.160645
117.165741
117.170746
117.175751
117.212585
117.217438
117.222382
117.227264
117.232086
117.237030
117.241882
117.246643
117.251495
117.256317
117.291473
117.296143
117.300934
117.305573
117.310211
117.314850
117.319458
117.324066
117.328705
117.333252
117.366882
117.371399
117.375885
117.380280
117.384735
117.389160
117.393524
117.398010
117.402313
117.406738
117.438843
117.443207
117.447418
117.451782
117.455963
117.460205
117.464539
117.468658
117.472870
117.477081
117.507629
117.511810
117.515869
117.519989
117.523956
117.528015
117.532135
117.536163
117.540161
117.544159
117.573303
117.577240
117.581207
117.585083
117.588867
117.592926
117.596710
117.600525
117.604370
117.608124
116.864227
116.870148
116.876068
116.881989
116.887787
116.893524
116.899261
116.905090
116.910950
116.916656
116.958740
116.964355
116.970032
116.975555
116.981232
116.986664
116.992218
116.997864
117.003235
117.008759
117.048950
117.054291
117.059723
117.065002
117.070374
117.075653
117.080872
117.086151
117.091583
117.096741
117.135193
117.140259
117.145447
117.150482
117.155609
117.160706
117.165741
117.170715
117.175751
117.180756
117.217499
117.222443
117.227325
117.232147
117.237061
117.241974
117.246765
117.251556
117.256439
117.261169
117.296265
117.300873
117.305573
117.310242
117.314850
117.319519
117.324097
117.328705
117.333313
117.337860
117.371399
117.375946
117.380371
117.384766
117.389221
117.393646
117.398041
117.402405
117.406830
117.411224
117.443268
117.447479
117.451874
117.456024
117.460236
117.464569
117.468719
117.472992
117.477112
117.481293
117.511871
117.515930
117.520050
117.524017
117.528046
117.532196
117.536163
117.540192
117.544159
117.548157
117.577301
117.581207
117.585114
117.588898
117.592957
117.596710
117.600616
117.604431
117.608185
117.612000
116.870178
116.876129
116.881989
116.887756
116.893616
116.899323
116.905151
116.910980
116.916687
116.922394
116.964417
116.970093
116.975555
116.981232
116.986786
116.992279
116.997894
117.003357
117.008789
117.014282
117.054413
117.059784
117.065063
117.070435
117.075714
117.080933
117.086273
117.091583
117.096771
117.102081
117.140350
117.145447
117.150543
117.155670
117.160736
117.165802
117.170807
117.175842
117.180817
117.185913
117.222473
117.227386
117.232208
117.237122
117.241974
117.246765
117.251587
117.256378
117.261169
117.265930
117.300995
117.305634
117.310272
117.314880
117.319641
117.324188
117.328796
117.333344
117.337921
117.342590
117.375977
117.380371
117.384857
117.389313
117.393677
117.398102
117.402527
117.406860
117.411255
117.415680
117.447510
117.451935
117.456055
117.460327
117.464600
117.468811
117.473022
117.477112
117.481323
117.485596
117.515961
117.520081
117.524109
117.528107
117.532227
117.536224
117.540192
117.544159
117.548187
117.552216
117.581238
117.585205
117.588928
117.592957
117.596741
117.600677
117.604462
117.608215
117.612000
117.615814
116.876190
116.882111
116.887878
116.893646
116.899445
116.905212
116.911102
116.916809
116.922455
116.928253
116.970154
116.975586
116.981293
116.986816
116.992401
116.997925
117.003418
117.008820
117.014282
117.019775
117.059845
117.065063
117.070465
117.075745
117.080994
117.086304
117.091675
117.096832
117.102081
117.107239
117.145477
117.150604
117.155762
117.160736
117.165863
117.170868
117.175903
117.180878
117.185974
117.190887
117.227386
117.232269
117.237152
117.242035
117.246796
117.251617
117.256500
117.261200
117.265991
117.270782
117.305756
117.310394
117.314941
117.319611
117.324249
117.328796
117.333435
117.337982
117.342621
117.347137
117.380463
117.384888
117.389374
117.393738
117.398102
117.402557
117.406891
117.411346
117.415741
117.420044
117.451935
117.456024
117.460297
117.464661
117.468933
117.472992
117.477264
117.481354
117.485565
117.489807
117.520111
117.524170
117.528168
117.532257
117.536224
117.540253
117.544220
117.548248
117.552216
117.556244
117.585205
117.589050
117.592987
117.596771
117.600677
117.604523
117.608307
117.612061
117.615814
117.619690

SCALARS Alpha float 1
LOOKUP_TABLE default
-2.516932
-2.516858
-2.516784
-2.516713
-2.516639
-2.516567
-2.516495
-2.516422
-2.516349
-2.516276
-2.515751
-2.515680
-2.515611
-2.515541
-2.515471
-2.515401
-2.515332
-2.515262
-2.515194
-2.515125
-2.514622
-2.514555
-2.514489
-2.514422
-2.514355
-2.514290
-2.514222
-2.514156
-2.514090
-2.514025
-2.513545
-2.513480
-2.513417
-2.513353
-2.513289
-2.513226
-2.513162
-2.513099
-2.513034
-2.512974
-2.512514
-2.512454
-2.512393
-2.512331
-2.512271
-2.512210
-2.512148
-2.512089
-2.512027
-2.511970
-2.511530
-2.511472
-2.511414
-2.511354
-2.511296
-2.511239
-2.511180
-2.511123
-2.511066
-2.511008
-2.510591
-2.510534
-2.510478
-2.510424
-2.510367
-2.510312
-2.510256
-2.510202
-2.510146
-2.510093
-2.509691
-2.509638
-2.509584
-2.509531
-2.509478
-2.509426
-2.509373
-2.509321
-2.509268
-2.509217
-2.508833
-2.508783
-2.508733
-2.508681
-2.508631
-2.508581
-2.508531
-2.508480
-2.508430
-2.508381
-2.508016
-2.507967
-2.507918
-2.507870
-2.507820
-2.507773
-2.507724
-2.507678
-2.507630
-2.507581
-2.516858
-2.516785
-2.516713
-2.516638
-2.516567
-2.516493
-2.516422
-2.516349
-2.516276
-2.516204
-2.515680
-2.515611
-2.515540
-2.515471
-2.515401
-2.515332
-2.515262
-2.515193
-2.515124
-2.515056
-2.514555
-2.514487
-2.514421
-2.514354
-2.514290
-2.514221
-2.514154
-2.514090
-2.514024
-2.513958
-2.513480
-2.513416
-2.513352
-2.513288
-2.513225
-2.513163
-2.513098
-2.513034
-2.512973
-2.512909
-2.512452
-2.512392
-2.512329
-2.512270
-2.512208
-2.512148
-2.512088
-2.512026
-2.511968
-2.511908
-2.511470
-2.511413
-2.511354
-2.511296
-2.511238
-2.511180
-2.511123
-2.511065
-2.511008
-2.510951
-2.510534
-2.510478
-2.510422
-2.510366
-2.510310
-2.510256
-2.510201
-2.510146
-2.510092
-2.510037
-2.509638
-2.509584
-2.509531
-2.509477
-2.509425
-2.509373
-2.509320
-2.509267
-2.509216
-2.509164
-2.508782
-2.508731
-2.508681
-2.508631
-2.508580
-2.508530
-2.508480
-2.508430
-2.508380
-2.508330
-2.507967
-2.507918
-2.507869
-2.507820
-2.507774
-2.507724
-2.507677
-2.507629
-2.507581
-2.507534
-2.516784
-2.516711
-2.516637
-2.516565
-2.516491
-2.516420
-2.516348
-2.516275
-2.516203
-2.516132
-2.515609
-2.515540
-2.515470
-2.515400
-2.515330
-2.515262
-2.515193
-2.515124
-2.515056
-2.514987
-2.514487
-2.514420
-2.514354
-2.514287
-2.514221
-2.514154
-2.514088
-2.514024
-2.513958
-2.513893
-2.513416
-2.513351
-2.513287
-2.513225
-2.513161
-2.513097
-2.513034
-2.512973
-2.512910
-2.512846
-2.512391
-2.512330
-2.512269
-2.512208
-2.512146
-2.512088
-2.512026
-2.511967
-2.511907
-2.511848
-2.511413
-2.511354
-2.511296
-2.511237
-2.511180
-2.511122
-2.511064
-2.511007
-2.510950
-2.510893
-2.510477
-2.510422
-2.510366
-2.510311
-2.510255
-2.510200
-2.510145
-2.510091
-2.510036
-2.509982
-2.509583
-2.509530
-2.509477
-2.509425
-2.509373
-2.509319
-2.509267
-2.509216
-2.509164
-2.509112
-2.508731
-2.508681
-2.508630
-2.508580
-2.508530
-2.508479
-2.508429
-2.508380
-2.508329
-2.508280
-2.507918
-2.507869
-2.507819
-2.507773
-2.507723
-2.507677
-2.507628
-2.507581
-2.507534
-2.507486
-2.516710
-2.516637
-2.516564
-2.516492
-2.516420
-2.516347
-2.516275
-2.516202
-2.516132
-2.516061
-2.515539
-2.515470
-2.515400
-2.515329
-2.515262
-2.515192
-2.515124
-2.515054
-2.514986
-2.514919
-2.514420
-2.514354
-2.514287
-2.514221
-2.514154
-2.514089
-2.514023
-2.513957
-2.513892
-2.513828
-2.513350
-2.513288
-2.513223
-2.513160
-2.513097
-2.513034
-2.512971
-2.512909
-2.512845
-2.512784
-2.512329
-2.512269
-2.512207
-2.512145
-2.512087
-2.512026
-2.511967
-2.511907
-2.511848
-2.511787
-2.511353
-2.511296
-2.511235
-2.511180
-2.511122
-2.511064
-2.511008
-2.510949
-2.510892
-2.510836
-2.510421
-2.510365
-2.510310
-2.510255
-2.510200
-2.510145
-2.510090
-2.510036
-2.509982
-2.509927
-2.509531
-2.509477
-2.509425
-2.509372
-2.509320
-2.509266
-2.509215
-2.509163
-2.509109
-2.509059
-2.508680
-2.508630
-2.508580
-2.508529
-2.508478
-2.508428
-2.508380
-2.508328
-2.508279
-2.508231
-2.507869
-2.507819
-2.507772
-2.507723
-2.507676
-2.507628
-2.507580
-2.507532
-2.507485
-2.507438
-2.516636
-2.516564
-2.516491
-2.516420
-2.516346
-2.516273
-2.516203
-2.516131
-2.516060
-2.515989
-2.515468
-2.515399
-2.515329
-2.515260
-2.515191
-2.515123
-2.515053
-2.514986
-2.514919
-2.514850
-2.514354
-2.514287
-2.514219
-2.514153
-2.514088
-2.514023
-2.513957
-2.513891
-2.513827
-2.513761
-2.513287
-2.513223
-2.513159
-2.513097
-2.513033
-2.512971
-2.512908
-2.512845
-2.512783
-2.512721
-2.512268
-2.512207
-2.512145
-2.512087
-2.512025
-2.511966
-2.511906
-2.511847
-2.511787
-2.511728
-2.511294
-2.511236
-2.511178
-2.511122
-2.511063
-2.511006
-2.510949
-2.510892
-2.510835
-2.510778
-2.510365
-2.510309
-2.510254
-2.510199
-2.510145
-2.510090
-2.510036
-2.509982
-2.509927
-2.509873
-2.509477
-2.509423
-2.509371
-2.509319
-2.509267
-2.509215
-2.509163
-2.509109
-2.509058
-2.509007
-2.508629
-2.508578
-2.508528
-2.508478
-2.508427
-2.508380
-2.508327
-2.508279
-2.508230
-2.508180
-2.507818
-2.507771
-2.507722
-2.507677
-2.507627
-2.507579
-2.507532
-2.507485
-2.507437
-2.507391
-2.516563
-2.516490
-2.516418
-2.516346
-2.516273
-2.516201
-2.516130
-2.516059
-2.515988
-2.515918
-2.515397
-2.515329
-2.515258
-2.515191
-2.515122
-2.515052
-2.514986
-2.514918
-2.514848
-2.514781
-2.514286
-2.514220
-2.514153
-2.514087
-2.514022
-2.513956
-2.513891
-2.513826
-2.513761
-2.513695
-2.513222
-2.513158
-2.513095
-2.513032
-2.512970
-2.512908
-2.512845
-2.512782
-2.512720
-2.512658
-2.512207
-2.512145
-2.512085
-2.512024
-2.511967
-2.511905
-2.511846
-2.511787
-2.511727
-2.511668
-2.511235
-2.511178
-2.511121
-2.511062
-2.511006
-2.510947
-2.510891
-2.510835
-2.510778
-2.510721
-2.510309
-2.510253
-2.510198
-2.510144
-2.510089
-2.510034
-2.509980
-2.509925
-2.509872
-2.509819
-2.509423
-2.509371
-2.509318
-2.509266
-2.509215
-2.509163
-2.509109
-2.509057
-2.509007
-2.508954
-2.508578
-2.508528
-2.508477
-2.508427
-2.508379
-2.508327
-2.508279
-2.508230
-2.508181
-2.508132
-2.507770
-2.507722
-2.507677
-2.507628
-2.507579
-2.507531
-2.507485
-2.507437
-2.507390
-2.507344
-2.516490
-2.516417
-2.516345
-2.516272
-2.516201
-2.516129
-2.516059
-2.515988
-2.515918
-2.515846
-2.515328
-2.515258
-2.515191
-2.515121
-2.515052
-2.514984
-2.514916
-2.514848
-2.514781
-2.514712
-2.514218
-2.514152
-2.514086
-2.514021
-2.513955
-2.513890
-2.513825
-2.513760
-2.513694
-2.513631
-2.513158
-2.513094
-2.513031
-2.512970
-2.512907
-2.512844
-2.512782
-2.512719
-2.512657
-2.512596
-2.512145
-2.512085
-2.512024
-2.511965
-2.511905
-2.511846
-2.511786
-2.511727
-2.511668
-2.511609
-2.511178
-2.511121
-2.511062
-2.511005
-2.510948
-2.510890
-2.510834
-2.510777
-2.510721
-2.510664
-2.510252
-2.510196
-2.510143
-2.510089
-2.510034
-2.509980
-2.509925
-2.509872
-2.509819
-2.509763
-2.509370
-2.509317
-2.509265
-2.509213
-2.509162
-2.509109
-2.509058
-2.509006
-2.508954
-2.508903
-2.508526
-2.508476
-2.508427
-2.508378
-2.508328
-2.508278
-2.508229
-2.508179
-2.508130
-2.508081
-2.507722
-2.507675
-2.507626
-2.507578
-2.507530
-2.507484
-2.507437
-2.507390
-2.507343
-2.507296
-2.516416
-2.516344
-2.516272
-2.516200
-2.516128
-2.516058
-2.515987
-2.515916
-2.515845
-2.515774
-2.515258
-2.515188
-2.515121
-2.515051
-2.514984
-2.514915
-2.514847
-2.514780
-2.514712
-2.514645
-2.514151
-2.514086
-2.514020
-2.513956
-2.513889
-2.513823
-2.513759
-2.513694
-2.513630
-2.513565
-2.513094
-2.513031
-2.512968
-2.512907
-2.512844
-2.512781
-2.512718
-2.512656
-2.512596
-2.512534
-2.512085
-2.512024
-2.511964
-2.511903
-2.511845
-2.511785
-2.511725
-2.511667
-2.511609
-2.511548
-2.511120
-2.511061
-2.511004
-2.510946
-2.510891
-2.510832
-2.510777
-2.510720
-2.510663
-2.510609
-2.510198
-2.510142
-2.510088
-2.510034
-2.509980
-2.509924
-2.509870
-2.509818
-2.509763
-2.509709
-2.509317
-2.509264
-2.509213
-2.509161
-2.509108
-2.509057
-2.509006
-2.508952
-2.508903
-2.508852
-2.508476
-2.508427
-2.508377
-2.508326
-2.508278
-2.508227
-2.508178
-2.508131
-2.508080
-2.508032
-2.507674
-2.507625
-2.507578
-2.507531
-2.507483
-2.507436
-2.507390
-2.507343
-2.507296
-2.507249
-2.516344
-2.516271
-2.516200
-2.516128
-2.516058
-2.515987
-2.515915
-2.515844
-2.515774
-2.515702
-2.515189
-2.515121
-2.515050
-2.514983
-2.514915
-2.514846
-2.514780
-2.514712
-2.514644
-2.514578
-2.514085
-2.514019
-2.513954
-2.513889
-2.513824
-2.513759
-2.513694
-2.513628
-2.513565
-2.513499
-2.513031
-2.512968
-2.512905
-2.512843
-2.512780
-2.512718
-2.512656
-2.512596
-2.512534
-2.512473
-2.512023
-2.511964
-2.511902
-2.511844
-2.511785
-2.511725
-2.511667
-2.511607
-2.511548
-2.511489
-2.511060
-2.511003
-2.510946
-2.510890
-2.510832
-2.510776
-2.510719
-2.510662
-2.510608
-2.510551
-2.510142
-2.510088
-2.510034
-2.509979
-2.509924
-2.509870
-2.509816
-2.509762
-2.509709
-2.509655
-2.509264
-2.509212
-2.509160
-2.509107
-2.509056
-2.509005
-2.508952
-2.508901
-2.508851
-2.508798
-2.508426
-2.508377
-2.508326
-2.508276
-2.508228
-2.508179
-2.508129
-2.508080
-2.508030