# vtk DataFile Version 3.0
PINN prediction t=14896.5517578125
ASCII
DATASET UNSTRUCTURED_GRID
POINTS 1000 float
0.000000 0.000000 0.000000
0.000000 0.000000 0.044444
0.000000 0.000000 0.088889
0.000000 0.000000 0.133333
0.000000 0.000000 0.177778
0.000000 0.000000 0.222222
0.000000 0.000000 0.266667
0.000000 0.000000 0.311111
0.000000 0.000000 0.355556
0.000000 0.000000 0.400000
0.000000 0.088889 0.000000
0.000000 0.088889 0.044444
0.000000 0.088889 0.088889
0.000000 0.088889 0.133333
0.000000 0.088889 0.177778
0.000000 0.088889 0.222222
0.000000 0.088889 0.266667
0.000000 0.088889 0.311111
0.000000 0.088889 0.355556
0.000000 0.088889 0.400000
0.000000 0.177778 0.000000
0.000000 0.177778 0.044444
0.000000 0.177778 0.088889
0.000000 0.177778 0.133333
0.000000 0.177778 0.177778
0.000000 0.177778 0.222222
0.000000 0.177778 0.266667
0.000000 0.177778 0.311111
0.000000 0.177778 0.355556
0.000000 0.177778 0.400000
0.000000 0.266667 0.000000
0.000000 0.266667 0.044444
0.000000 0.266667 0.088889
0.000000 0.266667 0.133333
0.000000 0.266667 0.177778
0.000000 0.266667 0.222222
0.000000 0.266667 0.266667
0.000000 0.266667 0.311111
0.000000 0.266667 0.355556
0.000000 0.266667 0.400000
0.000000 0.355556 0.000000
0.000000 0.355556 0.044444
0.000000 0.355556 0.088889
0.000000 0.355556 0.133333
0.000000 0.355556 0.177778
0.000000 0.355556 0.222222
0.000000 0.355556 0.266667
0.000000 0.355556 0.311111
0.000000 0.355556 0.355556
0.000000 0.355556 0.400000
0.000000 0.444444 0.000000
0.000000 0.444444 0.044444
0.000000 0.444444 0.088889
0.000000 0.444444 0.133333
0.000000 0.444444 0.177778
0.000000 0.444444 0.222222
0.000000 0.444444 0.266667
0.000000 0.444444 0.311111
0.000000 0.444444 0.355556
0.000000 0.444444 0.400000
0.000000 0.533333 0.000000
0.000000 0.533333 0.044444
0.000000 0.533333 0.088889
0.000000 0.533333 0.133333
0.000000 0.533333 0.177778
0.000000 0.533333 0.222222
0.000000 0.533333 0.266667
0.000000 0.533333 0.311111
0.000000 0.533333 0.355556
0.000000 0.533333 0.400000
0.000000 0.622222 0.000000
0.000000 0.622222 0.044444
0.000000 0.622222 0.088889
0.000000 0.622222 0.133333
0.000000 0.622222 0.177778
0.000000 0.622222 0.222222
0.000000 0.622222 0.266667
0.000000 0.622222 0.311111
0.000000 0.622222 0.355556
0.000000 0.622222 0.400000
0.000000 0.711111 0.000000
0.000000 0.711111 0.044444
0.000000 0.711111 0.088889
0.000000 0.711111 0.133333
0.000000 0.711111 0.177778
0.000000 0.711111 0.222222
0.000000 0.711111 0.266667
0.000000 0.711111 0.311111
0.000000 0.711111 0.355556
0.000000 0.711111 0.400000
0.000000 0.800000 0.000000
0.000000 0.800000 0.044444
0.000000 0.800000 0.088889
0.000000 0.800000 0.133333
0.000000 0.800000 0.177778
0.000000 0.800000 0.222222
0.000000 0.800000 0.266667
0.000000 0.800000 0.311111
0.000000 0.800000 0.355556
0.000000 0.800000 0.400000
0.044444 0.000000 0.000000
0.044444 0.000000 0.044444
0.044444 0.000000 0.088889
0.044444 0.000000 0.133333
0.044444 0.000000 0.177778
0.044444 0.000000 0.222222
0.044444 0.000000 0.266667
0.044444 0.000000 0.311111
0.044444 0.000000 0.355556
0.044444 0.000000 0.400000
0.044444 0.088889 0.000000
0.044444 0.088889 0.044444
0.044444 0.088889 0.088889
0.044444 0.088889 0.133333
0.044444 0.088889 0.177778
0.044444 0.088889 0.222222
0.044444 0.088889 0.266667
0.044444 0.088889 0.311111
0.044444 0.088889 0.355556
0.044444 0.088889 0.400000
0.044444 0.177778 0.000000
0.044444 0.177778 0.044444
0.044444 0.177778 0.088889
0.044444 0.177778 0.133333
0.044444 0.177778 0.177778
0.044444 0.177778 0.222222
0.044444 0.177778 0.266667
0.044444 0.177778 0.311111
0.044444 0.177778 0.355556
0.044444 0.177778 0.400000
0.044444 0.266667 0.000000
0.044444 0.266667 0.044444
0.044444 0.266667 0.088889
0.044444 0.266667 0.133333
0.044444 0.266667 0.177778
0.044444 0.266667 0.222222
0.044444 0.266667 0.266667
0.044444 0.266667 0.311111
0.044444 0.266667 0.355556
0.044444 0.266667 0.400000
0.044444 0.355556 0.000000
0.044444 0.355556 0.044444
0.044444 0.355556 0.088889
0.044444 0.355556 0.133333
0.044444 0.355556 0.177778
0.044444 0.355556 0.222222
0.044444 0.355556 0.266667
0.044444 0.355556 0.311111
0.044444 0.355556 0.355556
0.044444 0.355556 0.400000
0.044444 0.444444 0.000000
0.044444 0.444444 0.044444
0.044444 0.444444 0.088889
0.044444 0.444444 0.133333
0.044444 0.444444 0.177778
0.044444 0.444444 0.222222
0.044444 0.444444 0.266667
0.044444 0.444444 0.311111
0.044444 0.444444 0.355556
0.044444 0.444444 0.400000
0.044444 0.533333 0.000000
0.044444 0.533333 0.044444
0.044444 0.533333 0.088889
0.044444 0.533333 0.133333
0.044444 0.533333 0.177778
0.044444 0.533333 0.222222
0.044444 0.533333 0.266667
0.044444 0.533333 0.311111
0.044444 0.533333 0.355556
0.044444 0.533333 0.400000
0.044444 0.622222 0.000000
0.044444 0.622222 0.044444
0.044444 0.622222 0.088889
0.044444 0.622222 0.133333
0.044444 0.622222 0.177778
0.044444 0.622222 0.222222
0.044444 0.622222 0.266667
0.044444 0.622222 0.311111
0.044444 0.622222 0.355556
0.044444 0.622222 0.400000
0.044444 0.711111 0.000000
0.044444 0.711111 0.044444
0.044444 0.711111 0.088889
0.044444 0.711111 0.133333
0.044444 0.711111 0.177778
0.044444 0.711111 0.222222
0.044444 0.711111 0.266667
0.044444 0.711111 0.311111
0.044444 0.711111 0.355556
0.044444 0.711111 0.400000
0.044444 0.800000 0.000000
0.044444 0.800000 0.044444
0.044444 0.800000 0.088889
0.044444 0.800000 0.133333
0.044444 0.800000 0.177778
0.044444 0.800000 0.222222
0.044444 0.800000 0.266667
0.044444 0.800000 0.311111
0.044444 0.800000 0.355556
0.044444 0.800000 0.400000
0.088889 0.000000 0.000000
0.088889 0.000000 0.044444
0.088889 0.000000 0.088889
0.088889 0.000000 0.133333
0.088889 0.000000 0.177778
0.088889 0.000000 0.222222
0.088889 0.000000 0.266667
0.088889 0.000000 0.311111
0.088889 0.000000 0.355556
0.088889 0.000000 0.400000
0.088889 0.088889 0.000000
0.088889 0.088889 0.044444
0.088889 0.088889 0.088889
0.088889 0.088889 0.133333
0.088889 0.088889 0.177778
0.088889 0.088889 0.222222
0.088889 0.088889 0.266667
0.088889 0.088889 0.311111
0.088889 0.088889 0.355556
0.088889 0.088889 0.400000
0.088889 0.177778 0.000000
0.088889 0.177778 0.044444
0.088889 0.177778 0.088889
0.088889 0.177778 0.133333
0.088889 0.177778 0.177778
0.088889 0.177778 0.222222
0.088889 0.177778 0.266667
0.088889 0.177778 0.311111
0.088889 0.177778 0.355556
0.088889 0.177778 0.400000
0.088889 0.266667 0.000000
0.088889 0.266667 0.044444
0.088889 0.266667 0.088889
0.088889 0.266667 0.133333
0.088889 0.266667 0.177778
0.088889 0.266667 0.222222
0.088889 0.266667 0.266667
0.088889 0.266667 0.311111
0.088889 0.266667 0.355556
0.088889 0.266667 0.400000
0.088889 0.355556 0.000000
0.088889 0.355556 0.044444
0.088889 0.355556 0.088889
0.088889 0.355556 0.133333
0.088889 0.355556 0.177778
0.088889 0.355556 0.222222
0.088889 0.355556 0.266667
0.088889 0.355556 0.311111
0.088889 0.355556 0.355556
0.088889 0.355556 0.400000
0.088889 0.444444 0.000000
0.088889 0.444444 0.044444
0.088889 0.444444 0.088889
0.088889 0.444444 0.133333
0.088889 0.444444 0.177778
0.088889 0.444444 0.222222
0.088889 0.444444 0.266667
0.088889 0.444444 0.311111
0.088889 0.444444 0.355556
0.088889 0.444444 0.400000
0.088889 0.533333 0.000000
0.088889 0.533333 0.044444
0.088889 0.533333 0.088889
0.088889 0.533333 0.133333
0.088889 0.533333 0.177778
0.088889 0.533333 0.222222
0.088889 0.533333 0.266667
0.088889 0.533333 0.311111
0.088889 0.533333 0.355556
0.088889 0.533333 0.400000
0.088889 0.622222 0.000000
0.088889 0.622222 0.044444
0.088889 0.622222 0.088889
0.088889 0.622222 0.133333
0.088889 0.622222 0.177778
0.088889 0.622222 0.222222
0.088889 0.622222 0.266667
0.088889 0.622222 0.311111
0.088889 0.622222 0.355556
0.088889 0.622222 0.400000
0.088889 0.711111 0.000000
0.088889 0.711111 0.044444
0.088889 0.711111 0.088889
0.088889 0.711111 0.133333
0.088889 0.711111 0.177778
0.088889 0.711111 0.222222
0.088889 0.711111 0.266667
0.088889 0.711111 0.311111
0.088889 0.711111 0.355556
0.088889 0.711111 0.400000
0.088889 0.800000 0.000000
0.088889 0.800000 0.044444
0.088889 0.800000 0.088889
0.088889 0.800000 0.133333
0.088889 0.800000 0.177778
0.088889 0.800000 0.222222
0.088889 0.800000 0.266667
0.088889 0.800000 0.311111
0.088889 0.800000 0.355556
0.088889 0.800000 0.400000
0.133333 0.000000 0.000000
0.133333 0.000000 0.044444
0.133333 0.000000 0.088889
0.133333 0.000000 0.133333
0.133333 0.000000 0.177778
0.133333 0.000000 0.222222
0.133333 0.000000 0.266667
0.133333 0.000000 0.311111
0.133333 0.000000 0.355556
0.133333 0.000000 0.400000
0.133333 0.088889 0.000000
0.133333 0.088889 0.044444
0.133333 0.088889 0.088889
0.133333 0.088889 0.133333
0.133333 0.088889 0.177778
0.133333 0.088889 0.222222
0.133333 0.088889 0.266667
0.133333 0.088889 0.311111
0.133333 0.088889 0.355556
0.133333 0.088889 0.400000
0.133333 0.177778 0.000000
0.133333 0.177778 0.044444
0.133333 0.177778 0.088889
0.133333 0.177778 0.133333
0.133333 0.177778 0.177778
0.133333 0.177778 0.222222
0.133333 0.177778 0.266667
0.133333 0.177778 0.311111
0.133333 0.177778 0.355556
0.133333 0.177778 0.400000
0.133333 0.266667 0.000000
0.133333 0.266667 0.044444
0.133333 0.266667 0.088889
0.133333 0.266667 0.133333
0.133333 0.266667 0.177778
0.133333 0.266667 0.222222
0.133333 0.266667 0.266667
0.133333 0.266667 0.311111
0.133333 0.266667 0.355556
0.133333 0.266667 0.400000
0.133333 0.355556 0.000000
0.133333 0.355556 0.044444
0.133333 0.355556 0.088889
0.133333 0.355556 0.133333
0.133333 0.355556 0.177778
0.133333 0.355556 0.222222
0.133333 0.355556 0.266667
0.133333 0.355556 0.311111
0.133333 0.355556 0.355556
0.133333 0.355556 0.400000
0.133333 0.444444 0.000000
0.133333 0.444444 0.044444
0.133333 0.444444 0.088889
0.133333 0.444444 0.133333
0.133333 0.444444 0.177778
0.133333 0.444444 0.222222
0.133333 0.444444 0.266667
0.133333 0.444444 0.311111
0.133333 0.444444 0.355556
0.133333 0.444444 0.400000
0.133333 0.533333 0.000000
0.133333 0.533333 0.044444
0.133333 0.533333 0.088889
0.133333 0.533333 0.133333
0.133333 0.533333 0.177778
0.133333 0.533333 0.222222
[...]
POINT_DATA 1000
SCALARS Temperature float 1
LOOKUP_TABLE default
113.306519
113.321716
113.336884
113.351990
113.367035
113.382050
113.397064
113.411957
113.426910
113.441833
113.550720
113.565399
113.579926
113.594391
113.608795
113.623383
113.637756
113.652130
113.666412
113.680756
113.785309
113.799255
113.813324
113.827148
113.841034
113.854797
113.868713
113.882538
113.896362
113.909973
114.010284
114.023712
114.037140
114.050507
114.063843
114.077087
114.090393
114.103546
114.116760
114.129944
114.226105
114.239136
114.251923
114.264648
114.277496
114.290161
114.302856
114.315643
114.328247
114.340851
114.433136
114.445465
114.457794
114.470093
114.482391
114.494537
114.506805
114.518890
114.531097
114.543091
114.631622
114.643463
114.655304
114.667084
114.678741
114.690460
114.702179
114.713776
114.725464
114.737030
114.821808
114.833252
114.844513
114.855774
114.867096
114.878265
114.889404
114.900574
114.911743
114.922821
115.004120
115.015045
115.025818
115.036743
115.047394
115.058197
115.068909
115.079681
115.090302
115.100891
115.178802
115.189209
115.199524
115.209930
115.220337
115.230591
115.240814
115.251129
115.261261
115.271576
113.321869
113.337036
113.352234
113.367218
113.382202
113.397217
113.412140
113.426971
113.441986
113.456879
113.565613
113.580078
113.594604
113.609009
113.623535
113.637878
113.652283
113.666595
113.680939
113.695099
113.799469
113.813416
113.827362
113.841217
113.855042
113.868805
113.882690
113.896423
113.910065
113.923676
114.023895
114.037262
114.050629
114.064056
114.077179
114.090546
114.103638
114.116852
114.130035
114.143188
114.239136
114.252014
114.264771
114.277618
114.290344
114.303040
114.315643
114.328339
114.341003
114.353638
114.445679
114.457947
114.470245
114.482513
114.494659
114.506927
114.518982
114.531189
114.543304
114.555298
114.643646
114.655396
114.667206
114.678925
114.690582
114.702362
114.713989
114.725525
114.737152
114.748779
114.833374
114.844574
114.855896
114.867096
114.878387
114.889618
114.900696
114.911957
114.923004
114.934052
115.015167
115.025909
115.036774
115.047516
115.058258
115.069000
115.079803
115.090363
115.101074
115.111603
115.189362
115.199738
115.209991
115.220428
115.230713
115.240936
115.251190
115.261414
115.271515
115.281769
113.337097
113.352325
113.367371
113.382355
113.397339
113.412292
113.427246
113.442108
113.457062
113.471710
113.580261
113.594696
113.609161
113.623657
113.638031
113.652374
113.666718
113.681030
113.695282
113.709503
113.813568
113.827454
113.841339
113.855194
113.868958
113.882843
113.896606
113.910248
113.923889
113.937531
114.037384
114.050781
114.064087
114.077362
114.090576
114.103943
114.116974
114.130157
114.143250
114.156342
114.252136
114.264893
114.277679
114.290497
114.303101
114.315857
114.328461
114.341187
114.353729
114.366302
114.458038
114.470306
114.482574
114.494781
114.507080
114.519165
114.531403
114.543457
114.555450
114.567444
114.655548
114.667236
114.679016
114.690735
114.702484
114.714050
114.725677
114.737244
114.748901
114.760376
114.844727
114.855957
114.867310
114.878479
114.889740
114.900787
114.912079
114.923126
114.934113
114.945221
115.026031
115.036926
115.047668
115.058319
115.069183
115.079895
115.090485
115.101166
115.111816
115.122314
115.199829
115.210175
115.220551
115.230774
115.241028
115.251343
115.261444
115.271667
115.281891
115.291962
113.352448
113.367523
113.382538
113.397491
113.412354
113.427368
113.442322
113.457184
113.471863
113.486786
113.594940
113.609283
113.623901
113.638184
113.652466
113.666840
113.681183
113.695404
113.709625
113.723846
113.827667
113.841461
113.855438
113.869141
113.882965
113.896698
113.910370
113.923981
113.937653
113.951263
114.050995
114.064240
114.077484
114.090729
114.103973
114.117126
114.130280
114.143463
114.156525
114.169525
114.265045
114.277924
114.290558
114.303253
114.315948
114.328644
114.341339
114.353821
114.366455
114.378876
114.470459
114.482727
114.494904
114.507172
114.519257
114.531464
114.543549
114.555603
114.567566
114.579559
114.667450
114.679108
114.690826
114.702576
114.714172
114.725830
114.737305
114.748993
114.760529
114.771973
114.856079
114.867493
114.878693
114.889832
114.900848
114.912079
114.923187
114.934357
114.945282
114.956421
115.037018
115.047760
115.058502
115.069305
115.079987
115.090637
115.101349
115.111908
115.122467
115.133087
115.210297
115.220642
115.230865
115.241180
115.251434
115.261597
115.271820
115.282013
115.292114
115.302216
113.367706
113.382660
113.397614
113.412598
113.427582
113.442413
113.457275
113.472046
113.486877
113.501648
113.609528
113.624054
113.638275
113.652618
113.666962
113.681366
113.695526
113.709869
113.723969
113.738129
113.841644
113.855530
113.869232
113.883148
113.896851
113.910522
113.924164
113.937805
113.951385
113.964996
114.064362
114.077698
114.090851
114.104126
114.117218
114.130402
114.143646
114.156647
114.169769
114.182770
114.277985
114.290680
114.303406
114.316193
114.328766
114.341461
114.354004
114.366547
114.379028
114.391541
114.482849
114.495087
114.507294
114.519348
114.531525
114.543610
114.555756
114.567719
114.579712
114.591675
114.679260
114.690948
114.702698
114.714294
114.725983
114.737457
114.749115
114.760651
114.772125
114.783569
114.867554
114.878723
114.889954
114.901062
114.912231
114.923309
114.934540
114.945465
114.956390
114.967468
115.047821
115.058624
115.069458
115.080078
115.090759
115.101532
115.112030
115.122528
115.133148
115.143799
115.220703
115.230957
115.241241
115.251556
115.261749
115.271973
115.282013
115.292236
115.302399
115.312500
113.382874
113.397797
113.412811
113.427765
113.442596
113.457428
113.472198
113.487030
113.501740
113.516449
113.624176
113.638519
113.652802
113.667145
113.681519
113.695679
113.709869
113.724152
113.738312
113.752441
113.855682
113.869415
113.883240
113.896942
113.910645
113.924408
113.937927
113.951569
113.965118
113.978729
114.077850
114.091064
114.104218
114.117371
114.130646
114.143829
114.156677
114.169769
114.182922
114.195831
114.290833
114.303528
114.316254
114.328888
114.341553
114.354065
114.366699
114.379181
114.391693
114.404083
114.495209
114.507355
114.519531
114.531708
114.543762
114.555908
114.567841
114.579834
114.591766
114.603790
114.691101
114.702850
114.714447
114.726135
114.737518
114.749237
114.760834
114.772247
114.783722
114.795166
114.878876
114.890015
114.901215
114.912323
114.923462
114.934540
114.945526
114.956635
114.967590
114.978516
115.058777
115.069550
115.080170
115.090942
115.101624
115.112091
115.122650
115.133209
115.143829
115.154266
115.231110
115.241364
115.251678
115.261810
115.272125
115.282227
115.292328
115.302460
115.312561
115.322510
113.397949
113.412872
113.427887
113.442810
113.457611
113.472382
113.487213
113.501953
113.516632
113.531281
113.638641
113.652924
113.667297
113.681641
113.695862
113.710052
113.724304
113.738464
113.752594
113.766510
113.869568
113.883392
113.897095
113.910767
113.924469
113.938141
113.951782
113.965271
113.978882
113.992371
114.091217
114.104401
114.117645
114.130737
114.143890
114.156921
114.169952
114.183075
114.195984
114.208923
114.303741
114.316437
114.329071
114.341705
114.354248
114.366821
114.379364
114.391724
114.404236
114.416473
114.507477
114.519684
114.531799
114.543945
114.556000
114.567932
114.579956
114.591888
114.603851
114.615784
114.702942
114.714569
114.726227
114.737640
114.749298
114.760895
114.772308
114.783844
114.795258
114.806702
114.890167
114.901398
114.912415
114.923645
114.934601
114.945648
114.956757
114.967621
114.978699
114.989594
115.069641
115.080231
115.091034
115.101715
115.112274
115.122772
115.133362
115.143921
115.154419
115.164825
115.241425
115.251801
115.262024
115.272156
115.282349
115.292511
115.302643
115.312683
115.322693
115.332733
113.413055
113.428009
113.442932
113.457764
113.472565
113.487335
113.502136
113.516785
113.531372
113.546082
113.653137
113.667511
113.681763
113.696014
113.710205
113.724396
113.738556
113.752716
113.766663
113.780853
113.883514
113.897247
113.910919
113.924561
113.938232
113.951843
113.965546
113.979034
113.992584
114.005951
114.104523
114.117645
114.130859
114.144073
114.156982
114.170074
114.183105
114.196136
114.209106
114.221985
114.316528
114.329254
114.341797
114.354340
114.366913
114.379456
114.391907
114.404358
114.416748
114.429169
114.519775
114.531830
114.544006
114.556091
114.568115
114.580170
114.592010
114.604004
114.615875
114.627777
114.714691
114.726318
114.737823
114.749420
114.761078
114.772369
114.783966
114.795319
114.806793
114.818146
114.901489
114.912689
114.923737
114.934784
114.945770
114.956848
114.967773
114.978821
114.989746
115.000580
115.080414
115.091125
115.101837
115.112396
115.122894
115.133453
115.144073
115.154480
115.164886
115.175415
115.251892
115.262054
115.272247
115.282440
115.292572
115.302734
115.312744
115.322784
115.332855
115.342651
113.428162
113.443054
113.457947
113.472717
113.487457
113.502197
113.516907
113.531586
113.546143
113.560822
113.667694
113.681824
113.696136
113.710358
113.724579
113.738708
113.752838
113.766846
113.780945
113.794952
113.897430
113.911102
113.924683
113.938324
113.951935
113.965637
113.979126
113.992706
114.006134
114.019653
114.117920
114.130920
114.144226
114.157135
114.170288
114.183319
114.196259
114.209198
114.222076
114.234985
114.329254
114.341919
114.354431
114.367035
114.379547
114.391968
114.404449
114.416962
114.429321
114.441742
114.532043
114.544128
114.556244
114.568207
114.580261
114.592072
114.604095
114.615997
114.627869
114.639740
114.726440
114.737915
114.749634
114.761078
114.772522
114.784088
114.795502
114.806915
114.818237
114.829620
114.912750
114.923798
114.934937
114.945953
114.956940
114.967957
114.978912
114.989838
115.000702
115.011505
115.091217
115.102020
115.112518
115.123016
115.133575
115.144165
115.154572
115.165070
115.175415
115.186005
115.262146
115.272369
115.282471
115.292603
115.302765
115.312836
115.322906
115.332947
115.342865
115.352997
113.443207
113.458099
113.472900
113.487671
113.502411
113.517059
113.531769
113.546387
113.560944
113.575470
113.681976
113.696320
113.710602
113.724701
113.738922
113.752960
113.766998
113.781128
113.795013
113.809021
113.911224
113.924866
113.938507
113.952118
113.965759
113.979340
113.992767
114.006195
114.019745
114.033051
114.131165
114.144287
114.157410
114.170471
114.183411
114.196381
114.209259
114.222198
114.235107
114.248016
114.342133
114.354645
114.367218
114.379639
114.392120
114.404602
114.417053
114.429382
114.441772
114.454071
114.544220
114.556427
114.568268
114.580353
114.592255
114.604309
114.616058
114.628021
114.639862
114.651642
114.738098
114.749756
114.761261
114.772675
114.784210
114.795593
114.806976
114.818390
114.829773
114.841064
114.923950
114.935028
114.946014
114.957123
114.967987
114.979034
114.989899
115.000824
115.011627
115.022552
115.102081
115.112549
115.123199
115.133698
115.144257
115.154633
115.165192
115.175507
115.186096
115.196442
115.272552
115.282562
115.292694
115.302887
115.312927
115.323059
115.332916
115.342926
115.353119
115.362976

SCALARS Alpha float 1
LOOKUP_TABLE default
-2.560209
-2.560021
-2.559834
-2.559648
-2.559463
-2.559278
-2.559092
-2.558907
-2.558723
-2.558537
-2.557192
-2.557013
-2.556833
-2.556655
-2.556476
-2.556298
-2.556121
-2.555942
-2.555766
-2.555589
-2.554300
-2.554127
-2.553954
-2.553782
-2.553611
-2.553441
-2.553270
-2.553099
-2.552930
-2.552762
-2.551524
-2.551358
-2.551193
-2.551030
-2.550865
-2.550700
-2.550537
-2.550374
-2.550211
-2.550049
-2.548861
-2.548704
-2.548545
-2.548387
-2.548229
-2.548071
-2.547915
-2.547759
-2.547605
-2.547448
-2.546310
-2.546159
-2.546007
-2.545856
-2.545705
-2.545553
-2.545403
-2.545254
-2.545105
-2.544956
-2.543866
-2.543719
-2.543574
-2.543429
-2.543286
-2.543140
-2.542997
-2.542854
-2.542709
-2.542568
-2.541523
-2.541382
-2.541243
-2.541105
-2.540966
-2.540829
-2.540690
-2.540553
-2.540416
-2.540279
-2.539278
-2.539145
-2.539012
-2.538877
-2.538746
-2.538613
-2.538481
-2.538349
-2.538217
-2.538086
-2.537129
-2.536999
-2.536873
-2.536744
-2.536617
-2.536492
-2.536364
-2.536239
-2.536112
-2.535987
-2.560019
-2.559833
-2.559645
-2.559460
-2.559274
-2.559091
-2.558906
-2.558721
-2.558536
-2.558353
-2.557010
-2.556832
-2.556651
-2.556474
-2.556295
-2.556118
-2.555941
-2.555764
-2.555588
-2.555412
-2.554124
-2.553952
-2.553781
-2.553610
-2.553438
-2.553269
-2.553098
-2.552929
-2.552760
-2.552592
-2.551357
-2.551192
-2.551027
-2.550863
-2.550697
-2.550535
-2.550372
-2.550209
-2.550047
-2.549886
-2.548701
-2.548543
-2.548386
-2.548228
-2.548071
-2.547914
-2.547758
-2.547603
-2.547446
-2.547291
-2.546157
-2.546006
-2.545854
-2.545704
-2.545553
-2.545402
-2.545253
-2.545104
-2.544954
-2.544806
-2.543719
-2.543572
-2.543427
-2.543285
-2.543139
-2.542995
-2.542852
-2.542709
-2.542567
-2.542424
-2.541382
-2.541242
-2.541103
-2.540964
-2.540826
-2.540688
-2.540550
-2.540415
-2.540277
-2.540142
-2.539143
-2.539011
-2.538877
-2.538745
-2.538611
-2.538480
-2.538347
-2.538215
-2.538085
-2.537956
-2.536998
-2.536871
-2.536744
-2.536617
-2.536490
-2.536363
-2.536237
-2.536112
-2.535986
-2.535861
-2.559830
-2.559642
-2.559458
-2.559272
-2.559088
-2.558902
-2.558718
-2.558534
-2.558352
-2.558167
-2.556830
-2.556650
-2.556473
-2.556293
-2.556117
-2.555939
-2.555762
-2.555585
-2.555411
-2.555235
-2.553950
-2.553779
-2.553608
-2.553438
-2.553267
-2.553097
-2.552928
-2.552757
-2.552590
-2.552420
-2.551189
-2.551025
-2.550861
-2.550698
-2.550533
-2.550370
-2.550208
-2.550046
-2.549885
-2.549722
-2.548541
-2.548384
-2.548226
-2.548069
-2.547912
-2.547757
-2.547602
-2.547445
-2.547290
-2.547135
-2.546005
-2.545852
-2.545703
-2.545551
-2.545402
-2.545251
-2.545101
-2.544954
-2.544804
-2.544655
-2.543571
-2.543427
-2.543282
-2.543136
-2.542993
-2.542851
-2.542707
-2.542563
-2.542422
-2.542280
-2.541241
-2.541102
-2.540964
-2.540825
-2.540688
-2.540550
-2.540414
-2.540276
-2.540140
-2.540003
-2.539009
-2.538875
-2.538742
-2.538609
-2.538478
-2.538346
-2.538215
-2.538084
-2.537955
-2.537824
-2.536870
-2.536741
-2.536616
-2.536488
-2.536362
-2.536236
-2.536110
-2.535985
-2.535859
-2.535734
-2.559642
-2.559456
-2.559270
-2.559085
-2.558901
-2.558718
-2.558533
-2.558349
-2.558165
-2.557983
-2.556648
-2.556470
-2.556292
-2.556114
-2.555938
-2.555761
-2.555584
-2.555408
-2.555234
-2.555058
-2.553776
-2.553606
-2.553435
-2.553265
-2.553094
-2.552926
-2.552755
-2.552588
-2.552419
-2.552251
-2.551023
-2.550859
-2.550694
-2.550532
-2.550367
-2.550206
-2.550043
-2.549882
-2.549720
-2.549560
-2.548382
-2.548224
-2.548067
-2.547911
-2.547755
-2.547600
-2.547442
-2.547288
-2.547134
-2.546980
-2.545850
-2.545700
-2.545548
-2.545398
-2.545249
-2.545099
-2.544951
-2.544803
-2.544654
-2.544506
-2.543425
-2.543281
-2.543136
-2.542992
-2.542849
-2.542705
-2.542562
-2.542420
-2.542278
-2.542136
-2.541101
-2.540962
-2.540824
-2.540685
-2.540547
-2.540410
-2.540274
-2.540138
-2.540001
-2.539866
-2.538874
-2.538741
-2.538608
-2.538477
-2.538345
-2.538213
-2.538084
-2.537951
-2.537822
-2.537691
-2.536741
-2.536614
-2.536487
-2.536360
-2.536234
-2.536108
-2.535984
-2.535858
-2.535733
-2.535609
-2.559454
-2.559269
-2.559083
-2.558898
-2.558715
-2.558531
-2.558347
-2.558164
-2.557983
-2.557799
-2.556468
-2.556290
-2.556112
-2.555935
-2.555758
-2.555582
-2.555407
-2.555232
-2.555057
-2.554882
-2.553604
-2.553435
-2.553263
-2.553093
-2.552923
-2.552755
-2.552586
-2.552418
-2.552250
-2.552083
-2.550858
-2.550693
-2.550530
-2.550366
-2.550204
-2.550042
-2.549880
-2.549719
-2.549558
-2.549397
-2.548223
-2.548066
-2.547909
-2.547753
-2.547597
-2.547443
-2.547286
-2.547132
-2.546978
-2.546825
-2.545699
-2.545548
-2.545398
-2.545248
-2.545098
-2.544950
-2.544801
-2.544653
-2.544505
-2.544359
-2.543279
-2.543134
-2.542991
-2.542847
-2.542704
-2.542560
-2.542419
-2.542276
-2.542135
-2.541994
-2.540961
-2.540823
-2.540685
-2.540547
-2.540409
-2.540273
-2.540137
-2.540000
-2.539865
-2.539729
-2.538739
-2.538607
-2.538476
-2.538343
-2.538212
-2.538081
-2.537950
-2.537820
-2.537690
-2.537561
-2.536613
-2.536485
-2.536360
-2.536234
-2.536108
-2.535981
-2.535857
-2.535733
-2.535608
-2.535483
-2.559267
-2.559081
-2.558896
-2.558713
-2.558529
-2.558345
-2.558162
-2.557981
-2.557798
-2.557617
-2.556288
-2.556111
-2.555933
-2.555758
-2.555580
-2.555406
-2.555230
-2.555055
-2.554881
-2.554707
-2.553432
-2.553261
-2.553091
-2.552922
-2.552754
-2.552584
-2.552416
-2.552248
-2.552081
-2.551913
-2.550692
-2.550528
-2.550365
-2.550202
-2.550041
-2.549879
-2.549717
-2.549557
-2.549397
-2.549236
-2.548064
-2.547909
-2.547751
-2.547596
-2.547441
-2.547286
-2.547130
-2.546977
-2.546824
-2.546670
-2.545547
-2.545396
-2.545246
-2.545097
-2.544948
-2.544800
-2.544652
-2.544503
-2.544357
-2.544209
-2.543132
-2.542990
-2.542845
-2.542702
-2.542561
-2.542418
-2.542275
-2.542133
-2.541993
-2.541852
-2.540821
-2.540684
-2.540545
-2.540408
-2.540271
-2.540135
-2.539999
-2.539864
-2.539727
-2.539593
-2.538605
-2.538474
-2.538342
-2.538210
-2.538080
-2.537949
-2.537818
-2.537689
-2.537560
-2.537431
-2.536484
-2.536358
-2.536232
-2.536106
-2.535981
-2.535856
-2.535731
-2.535606
-2.535482
-2.535359
-2.559081
-2.558894
-2.558711
-2.558526
-2.558344
-2.558160
-2.557978
-2.557795
-2.557615
-2.557433
-2.556108
-2.555932
-2.555755
-2.555579
-2.555402
-2.555228
-2.555054
-2.554879
-2.554704
-2.554532
-2.553259
-2.553089
-2.552920
-2.552751
-2.552583
-2.552413
-2.552245
-2.552080
-2.551913
-2.551745
-2.550526
-2.550364
-2.550200
-2.550038
-2.549877
-2.549716
-2.549555
-2.549395
-2.549233
-2.549074
-2.547906
-2.547750
-2.547594
-2.547439
-2.547283
-2.547129
-2.546976
-2.546822
-2.546668
-2.546515
-2.545394
-2.545245
-2.545095
-2.544947
-2.544799
-2.544650
-2.544502
-2.544355
-2.544207
-2.544062
-2.542987
-2.542843
-2.542701
-2.542558
-2.542416
-2.542273
-2.542132
-2.541991
-2.541850
-2.541710
-2.540682
-2.540543
-2.540406
-2.540270
-2.540133
-2.539997
-2.539862
-2.539727
-2.539593
-2.539456
-2.538471
-2.538340
-2.538210
-2.538079
-2.537948
-2.537817
-2.537688
-2.537559
-2.537429
-2.537301
-2.536356
-2.536231
-2.536104
-2.535979
-2.535854
-2.535730
-2.535606
-2.535480
-2.535357
-2.535234
-2.558893
-2.558709
-2.558525
-2.558342
-2.558158
-2.557977
-2.557795
-2.557614
-2.557431
-2.557251
-2.555930
-2.555753
-2.555576
-2.555401
-2.555227
-2.555052
-2.554876
-2.554702
-2.554529
-2.554355
-2.553087
-2.552918
-2.552750
-2.552581
-2.552413
-2.552244
-2.552078
-2.551910
-2.551743
-2.551578
-2.550363
-2.550198
-2.550037
-2.549875
-2.549714
-2.549553
-2.549393
-2.549232
-2.549074
-2.548913
-2.547748
-2.547593
-2.547437
-2.547281
-2.547127
-2.546973
-2.546819
-2.546666
-2.546514
-2.546360
-2.545243
-2.545093
-2.544946
-2.544797
-2.544647
-2.544501
-2.544352
-2.544205
-2.544060
-2.543913
-2.542843
-2.542699
-2.542556
-2.542414
-2.542273
-2.542130
-2.541991
-2.541848
-2.541709
-2.541568
-2.540543
-2.540404
-2.540268
-2.540131
-2.539995
-2.539861
-2.539726
-2.539591
-2.539456
-2.539322
-2.538339
-2.538207
-2.538077
-2.537947
-2.537816
-2.537687
-2.537557
-2.537428
-2.537299
-2.537171
-2.536230
-2.536104
-2.535978
-2.535853
-2.535729
-2.535604
-2.535480
-2.535356
-2.535231
-2.535110
-2.558707
-2.558522
-2.558341
-2.558156
-2.557974
-2.557792
-2.557611
-2.557430
-2.557251
-2.557070
-2.555751
-2.555575
-2.555399
-2.555224
-2.555049
-2.554874
-2.554699
-2.554528
-2.554354
-2.554181
-2.552917
-2.552747
-2.552579
-2.552412
-2.552242
-2.552075
-2.551909
-2.551742
-2.551576
-2.551412
-2.550198
-2.550034
-2.549873
-2.549712
-2.549553
-2.549392
-2.549231
-2.549071
-2.548913
-2.548754
-2.547591
-2.547436
-2.547280
-2.547126
-2.546972
-2.546818
-2.546664
-2.546512
-2.546358
-2.546206
-2.545092
-2.544944
-2.544796
-2.544647
-2.544499
-2.544353
-2.544204
-2.544060
-2.543911
-2.543765
-2.542698
-2.542556
-2.542413
-2.542271
-2.542128
-2.541988
-2.541847
-2.541707
-2.541566
-2.541427
-2.540403
-2.540267
-2.540130
-2.539995
-2.539860
-2.539724
-2.539588
-2.539454
-2.539319
-2.539187
-2.538206
-2.538076
-2.537946
-2.537815
-2.537685
-2.537555
-2.537427
-2.537298
-2.537169