# vtk DataFile Version 3.0
PINN prediction t=32772.4140625
ASCII
DATASET UNSTRUCTURED_GRID
POINTS 1000 float
0.000000 0.000000 0.000000
0.000000 0.000000 0.044444
0.000000 0.000000 0.088889
0.000000 0.000000 0.133333
0.000000 0.000000 0.177778
0.000000 0.000000 0.222222
0.000000 0.000000 0.266667
0.000000 0.000000 0.311111
0.000000 0.000000 0.355556
0.000000 0.000000 0.400000
0.000000 0.088889 0.000000
0.000000 0.088889 0.044444
0.000000 0.088889 0.088889
0.000000 0.088889 0.133333
0.000000 0.088889 0.177778
0.000000 0.088889 0.222222
0.000000 0.088889 0.266667
0.000000 0.088889 0.311111
0.000000 0.088889 0.355556
0.000000 0.088889 0.400000
0.000000 0.177778 0.000000
0.000000 0.177778 0.044444
0.000000 0.177778 0.088889
0.000000 0.177778 0.133333
0.000000 0.177778 0.177778
0.000000 0.177778 0.222222
0.000000 0.177778 0.266667
0.000000 0.177778 0.311111
0.000000 0.177778 0.355556
0.000000 0.177778 0.400000
0.000000 0.266667 0.000000
0.000000 0.266667 0.044444
0.000000 0.266667 0.088889
0.000000 0.266667 0.133333
0.000000 0.266667 0.177778
0.000000 0.266667 0.222222
0.000000 0.266667 0.266667
0.000000 0.266667 0.311111
0.000000 0.266667 0.355556
0.000000 0.266667 0.400000
0.000000 0.355556 0.000000
0.000000 0.355556 0.044444
0.000000 0.355556 0.088889
0.000000 0.355556 0.133333
0.000000 0.355556 0.177778
0.000000 0.355556 0.222222
0.000000 0.355556 0.266667
0.000000 0.355556 0.311111
0.000000 0.355556 0.355556
0.000000 0.355556 0.400000
0.000000 0.444444 0.000000
0.000000 0.444444 0.044444
0.000000 0.444444 0.088889
0.000000 0.444444 0.133333
0.000000 0.444444 0.177778
0.000000 0.444444 0.222222
0.000000 0.444444 0.266667
0.000000 0.444444 0.311111
0.000000 0.444444 0.355556
0.000000 0.444444 0.400000
0.000000 0.533333 0.000000
0.000000 0.533333 0.044444
0.000000 0.533333 0.088889
0.000000 0.533333 0.133333
0.000000 0.533333 0.177778
0.000000 0.533333 0.222222
0.000000 0.533333 0.266667
0.000000 0.533333 0.311111
0.000000 0.533333 0.355556
0.000000 0.533333 0.400000
0.000000 0.622222 0.000000
0.000000 0.622222 0.044444
0.000000 0.622222 0.088889
0.000000 0.622222 0.133333
0.000000 0.622222 0.177778
0.000000 0.622222 0.222222
0.000000 0.622222 0.266667
0.000000 0.622222 0.311111
0.000000 0.622222 0.355556
0.000000 0.622222 0.400000
0.000000 0.711111 0.000000
0.000000 0.711111 0.044444
0.000000 0.711111 0.088889
0.000000 0.711111 0.133333
0.000000 0.711111 0.177778
0.000000 0.711111 0.222222
0.000000 0.711111 0.266667
0.000000 0.711111 0.311111
0.000000 0.711111 0.355556
0.000000 0.711111 0.400000
0.000000 0.800000 0.000000
0.000000 0.800000 0.044444
0.000000 0.800000 0.088889
0.000000 0.800000 0.133333
0.000000 0.800000 0.177778
0.000000 0.800000 0.222222
0.000000 0.800000 0.266667
0.000000 0.800000 0.311111
0.000000 0.800000 0.355556
0.000000 0.800000 0.400000
0.044444 0.000000 0.000000
0.044444 0.000000 0.044444
0.044444 0.000000 0.088889
0.044444 0.000000 0.133333
0.044444 0.000000 0.177778
0.044444 0.000000 0.222222
0.044444 0.000000 0.266667
0.044444 0.000000 0.311111
0.044444 0.000000 0.355556
0.044444 0.000000 0.400000
0.044444 0.088889 0.000000
0.044444 0.088889 0.044444
0.044444 0.088889 0.088889
0.044444 0.088889 0.133333
0.044444 0.088889 0.177778
0.044444 0.088889 0.222222
0.044444 0.088889 0.266667
0.044444 0.088889 0.311111
0.044444 0.088889 0.355556
0.044444 0.088889 0.400000
0.044444 0.177778 0.000000
0.044444 0.177778 0.044444
0.044444 0.177778 0.088889
0.044444 0.177778 0.133333
0.044444 0.177778 0.177778
0.044444 0.177778 0.222222
0.044444 0.177778 0.266667
0.044444 0.177778 0.311111
0.044444 0.177778 0.355556
0.044444 0.177778 0.400000
0.044444 0.266667 0.000000
0.044444 0.266667 0.044444
0.044444 0.266667 0.088889
0.044444 0.266667 0.133333
0.044444 0.266667 0.177778
0.044444 0.266667 0.222222
0.044444 0.266667 0.266667
0.044444 0.266667 0.311111
0.044444 0.266667 0.355556
0.044444 0.266667 0.400000
0.044444 0.355556 0.000000
0.044444 0.355556 0.044444
0.044444 0.355556 0.088889
0.044444 0.355556 0.133333
0.044444 0.355556 0.177778
0.044444 0.355556 0.222222
0.044444 0.355556 0.266667
0.044444 0.355556 0.311111
0.044444 0.355556 0.355556
0.044444 0.355556 0.400000
0.044444 0.444444 0.000000
0.044444 0.444444 0.044444
0.044444 0.444444 0.088889
0.044444 0.444444 0.133333
0.044444 0.444444 0.177778
0.044444 0.444444 0.222222
0.044444 0.444444 0.266667
0.044444 0.444444 0.311111
0.044444 0.444444 0.355556
0.044444 0.444444 0.400000
0.044444 0.533333 0.000000
0.044444 0.533333 0.044444
0.044444 0.533333 0.088889
0.044444 0.533333 0.133333
0.044444 0.533333 0.177778
0.044444 0.533333 0.222222
0.044444 0.533333 0.266667
0.044444 0.533333 0.311111
0.044444 0.533333 0.355556
0.044444 0.533333 0.400000
0.044444 0.622222 0.000000
0.044444 0.622222 0.044444
0.044444 0.622222 0.088889
0.044444 0.622222 0.133333
0.044444 0.622222 0.177778
0.044444 0.622222 0.222222
0.044444 0.622222 0.266667
0.044444 0.622222 0.311111
0.044444 0.622222 0.355556
0.044444 0.622222 0.400000
0.044444 0.711111 0.000000
0.044444 0.711111 0.044444
0.044444 0.711111 0.088889
0.044444 0.711111 0.133333
0.044444 0.711111 0.177778
0.044444 0.711111 0.222222
0.044444 0.711111 0.266667
0.044444 0.711111 0.311111
0.044444 0.711111 0.355556
0.044444 0.711111 0.400000
0.044444 0.800000 0.000000
0.044444 0.800000 0.044444
0.044444 0.800000 0.088889
0.044444 0.800000 0.133333
0.044444 0.800000 0.177778
0.044444 0.800000 0.222222
0.044444 0.800000 0.266667
0.044444 0.800000 0.311111
0.044444 0.800000 0.355556
0.044444 0.800000 0.400000
0.088889 0.000000 0.000000
0.088889 0.000000 0.044444
0.088889 0.000000 0.088889
0.088889 0.000000 0.133333
0.088889 0.000000 0.177778
0.088889 0.000000 0.222222
0.088889 0.000000 0.266667
0.088889 0.000000 0.311111
0.088889 0.000000 0.355556
0.088889 0.000000 0.400000
0.088889 0.088889 0.000000
0.088889 0.088889 0.044444
0.088889 0.088889 0.088889
0.088889 0.088889 0.133333
0.088889 0.088889 0.177778
0.088889 0.088889 0.222222
0.088889 0.088889 0.266667
0.088889 0.088889 0.311111
0.088889 0.088889 0.355556
0.088889 0.088889 0.400000
0.088889 0.177778 0.000000
0.088889 0.177778 0.044444
0.088889 0.177778 0.088889
0.088889 0.177778 0.133333
0.088889 0.177778 0.177778
0.088889 0.177778 0.222222
0.088889 0.177778 0.266667
0.088889 0.177778 0.311111
0.088889 0.177778 0.355556
0.088889 0.177778 0.400000
0.088889 0.266667 0.000000
0.088889 0.266667 0.044444
0.088889 0.266667 0.088889
0.088889 0.266667 0.133333
0.088889 0.266667 0.177778
0.088889 0.266667 0.222222
0.088889 0.266667 0.266667
0.088889 0.266667 0.311111
0.088889 0.266667 0.355556
0.088889 0.266667 0.400000
0.088889 0.355556 0.000000
0.088889 0.355556 0.044444
0.088889 0.355556 0.088889
0.088889 0.355556 0.133333
0.088889 0.355556 0.177778
0.088889 0.355556 0.222222
0.088889 0.355556 0.266667
0.088889 0.355556 0.311111
0.088889 0.355556 0.355556
0.088889 0.355556 0.400000
0.088889 0.444444 0.000000
0.088889 0.444444 0.044444
0.088889 0.444444 0.088889
0.088889 0.444444 0.133333
0.088889 0.444444 0.177778
0.088889 0.444444 0.222222
0.088889 0.444444 0.266667
0.088889 0.444444 0.311111
0.088889 0.444444 0.355556
0.088889 0.444444 0.400000
0.088889 0.533333 0.000000
0.088889 0.533333 0.044444
0.088889 0.533333 0.088889
0.088889 0.533333 0.133333
0.088889 0.533333 0.177778
0.088889 0.533333 0.222222
0.088889 0.533333 0.266667
0.088889 0.533333 0.311111
0.088889 0.533333 0.355556
0.088889 0.533333 0.400000
0.088889 0.622222 0.000000
0.088889 0.622222 0.044444
0.088889 0.622222 0.088889
0.088889 0.622222 0.133333
0.088889 0.622222 0.177778
0.088889 0.622222 0.222222
0.088889 0.622222 0.266667
0.088889 0.622222 0.311111
0.088889 0.622222 0.355556
0.088889 0.622222 0.400000
0.088889 0.711111 0.000000
0.088889 0.711111 0.044444
0.088889 0.711111 0.088889
0.088889 0.711111 0.133333
0.088889 0.711111 0.177778
0.088889 0.711111 0.222222
0.088889 0.711111 0.266667
0.088889 0.711111 0.311111
0.088889 0.711111 0.355556
0.088889 0.711111 0.400000
0.088889 0.800000 0.000000
0.088889 0.800000 0.044444
0.088889 0.800000 0.088889
0.088889 0.800000 0.133333
0.088889 0.800000 0.177778
0.088889 0.800000 0.222222
0.088889 0.800000 0.266667
0.088889 0.800000 0.311111
0.088889 0.800000 0.355556
0.088889 0.800000 0.400000
0.133333 0.000000 0.000000
0.133333 0.000000 0.044444
0.133333 0.000000 0.088889
0.133333 0.000000 0.133333
0.133333 0.000000 0.177778
0.133333 0.000000 0.222222
0.133333 0.000000 0.266667
0.133333 0.000000 0.311111
0.133333 0.000000 0.355556
0.133333 0.000000 0.400000
0.133333 0.088889 0.000000
0.133333 0.088889 0.044444
0.133333 0.088889 0.088889
0.133333 0.088889 0.133333
0.133333 0.088889 0.177778
0.133333 0.088889 0.222222
0.133333 0.088889 0.266667
0.133333 0.088889 0.311111
0.133333 0.088889 0.355556
0.133333 0.088889 0.400000
0.133333 0.177778 0.000000
0.133333 0.177778 0.044444
0.133333 0.177778 0.088889
0.133333 0.177778 0.133333
0.133333 0.177778 0.177778
0.133333 0.177778 0.222222
0.133333 0.177778 0.266667
0.133333 0.177778 0.311111
0.133333 0.177778 0.355556
0.133333 0.177778 0.400000
0.133333 0.266667 0.000000
0.133333 0.266667 0.044444
0.133333 0.266667 0.088889
0.133333 0.266667 0.133333
0.133333 0.266667 0.177778
0.133333 0.266667 0.222222
0.133333 0.266667 0.266667
0.133333 0.266667 0.311111
0.133333 0.266667 0.355556
0.133333 0.266667 0.400000
0.133333 0.355556 0.000000
0.133333 0.355556 0.044444
0.133333 0.355556 0.088889
0.133333 0.355556 0.133333
0.133333 0.355556 0.177778
0.133333 0.355556 0.222222
0.133333 0.355556 0.266667
0.133333 0.355556 0.311111
0.133333 0.355556 0.355556
0.133333 0.355556 0.400000
0.133333 0.444444 0.000000
0.133333 0.444444 0.044444
0.133333 0.444444 0.088889
0.133333 0.444444 0.133333
0.133333 0.444444 0.177778
0.133333 0.444444 0.222222
0.133333 0.444444 0.266667
0.133333 0.444444 0.311111
0.133333 0.444444 0.355556
0.133333 0.444444 0.400000
0.133333 0.533333 0.000000
0.133333 0.533333 0.044444
0.133333 0.533333 0.088889
0.133333 0.533333 0.133333
0.133333 0.533333 0.177778
0.133333 0.533333 0.222222
[...]
POINT_DATA 1000
SCALARS Temperature float 1
LOOKUP_TABLE default
118.662445
118.663239
118.664124
118.664856
118.665558
118.666504
118.667206
118.668030
118.668823
118.669617
118.675385
118.676117
118.676849
118.677673
118.678497
118.679108
118.679962
118.680725
118.681488
118.682098
118.687683
118.688446
118.689148
118.689911
118.690643
118.691315
118.692047
118.692780
118.693512
118.694244
118.699554
118.700226
118.700836
118.701569
118.702240
118.702972
118.703735
118.704315
118.704987
118.705719
118.710785
118.711304
118.712006
118.712646
118.713348
118.713959
118.714752
118.715332
118.715973
118.716705
118.721344
118.722015
118.722656
118.723297
118.723907
118.724518
118.725189
118.725922
118.726593
118.727112
118.731598
118.732269
118.732819
118.733551
118.734100
118.734711
118.735260
118.735840
118.736389
118.737000
118.741364
118.741943
118.742493
118.743073
118.743683
118.744232
118.744781
118.745392
118.746002
118.746490
118.750580
118.751190
118.751740
118.752289
118.752838
118.753326
118.753876
118.754486
118.755096
118.755585
118.759491
118.760071
118.760590
118.761078
118.761536
118.762177
118.762604
118.763123
118.763672
118.764130
118.663239
118.664154
118.664886
118.665588
118.666504
118.667206
118.668030
118.668854
118.669647
118.670319
118.676117
118.676849
118.677673
118.678467
118.679138
118.679932
118.680725
118.681488
118.682098
118.682983
118.688446
118.689117
118.689911
118.690674
118.691315
118.692078
118.692780
118.693542
118.694244
118.695038
118.700256
118.700897
118.701630
118.702240
118.702972
118.703766
118.704315
118.704987
118.705719
118.706360
118.711334
118.712006
118.712677
118.713348
118.713959
118.714722
118.715363
118.716003
118.716705
118.717407
118.722046
118.722656
118.723297
118.723938
118.724518
118.725189
118.725952
118.726593
118.727081
118.727631
118.732269
118.732819
118.733551
118.734131
118.734711
118.735291
118.735809
118.736420
118.737030
118.737701
118.741913
118.742523
118.743073
118.743713
118.744232
118.744812
118.745392
118.746002
118.746521
118.747101
118.751251
118.751740
118.752289
118.752869
118.753357
118.753937
118.754486
118.755096
118.755646
118.756134
118.760101
118.760559
118.761078
118.761566
118.762207
118.762604
118.763123
118.763702
118.764160
118.764771
118.664124
118.664948
118.665558
118.666534
118.667206
118.668030
118.668854
118.669647
118.670349
118.671234
118.676849
118.677673
118.678497
118.679138
118.679993
118.680786
118.681519
118.682159
118.682983
118.683777
118.689117
118.689911
118.690674
118.691345
118.692078
118.692841
118.693573
118.694275
118.695038
118.695740
118.700897
118.701599
118.702240
118.702972
118.703766
118.704346
118.704987
118.705780
118.706390
118.707062
118.712036
118.712708
118.713409
118.713989
118.714752
118.715363
118.716034
118.716675
118.717377
118.717987
118.722656
118.723328
118.723938
118.724518
118.725220
118.725952
118.726562
118.727142
118.727661
118.728363
118.732849
118.733551
118.734100
118.734711
118.735260
118.735870
118.736420
118.737030
118.737701
118.738281
118.742523
118.743103
118.743713
118.744232
118.744781
118.745392
118.745972
118.746552
118.747101
118.747711
118.751740
118.752319
118.752838
118.753357
118.753937
118.754486
118.755096
118.755646
118.756165
118.756622
118.760620
118.761108
118.761536
118.762238
118.762604
118.763153
118.763702
118.764191
118.764771
118.765289
118.664886
118.665619
118.666534
118.667206
118.667999
118.668854
118.669617
118.670380
118.671234
118.672028
118.677734
118.678497
118.679138
118.679993
118.680817
118.681488
118.682190
118.683014
118.683777
118.684479
118.689911
118.690674
118.691315
118.692047
118.692841
118.693542
118.694275
118.695068
118.695740
118.696411
118.701630
118.702240
118.702972
118.703796
118.704346
118.704987
118.705719
118.706390
118.707092
118.707733
118.712708
118.713409
118.713989
118.714783
118.715363
118.716034
118.716705
118.717407
118.718018
118.718567
118.723328
118.723907
118.724518
118.725220
118.725952
118.726562
118.727142
118.727631
118.728363
118.728943
118.733551
118.734131
118.734711
118.735291
118.735870
118.736420
118.737030
118.737701
118.738251
118.738922
118.743103
118.743713
118.744202
118.744843
118.745392
118.745972
118.746552
118.747131
118.747742
118.748322
118.752319
118.752838
118.753357
118.753967
118.754486
118.755096
118.755615
118.756134
118.756653
118.757263
118.761108
118.761566
118.762177
118.762604
118.763184
118.763702
118.764191
118.764740
118.765289
118.765808
118.665619
118.666534
118.667145
118.668060
118.668823
118.669647
118.670380
118.671234
118.672058
118.672821
118.678436
118.679169
118.679962
118.680786
118.681488
118.682220
118.683014
118.683777
118.684479
118.685272
118.690704
118.691315
118.692047
118.692871
118.693542
118.694275
118.695038
118.695770
118.696411
118.697052
118.702240
118.703033
118.703766
118.704376
118.705017
118.705750
118.706421
118.707123
118.707764
118.708466
118.713409
118.714020
118.714752
118.715424
118.716003
118.716705
118.717377
118.718018
118.718628
118.719208
118.723938
118.724548
118.725250
118.725952
118.726562
118.727142
118.727631
118.728363
118.728943
118.729645
118.734100
118.734741
118.735291
118.735931
118.736359
118.737030
118.737701
118.738312
118.738922
118.739410
118.743713
118.744232
118.744812
118.745392
118.746002
118.746552
118.747101
118.747742
118.748383
118.748749
118.752838
118.753387
118.753937
118.754517
118.755035
118.755585
118.756165
118.756683
118.757294
118.757782
118.761597
118.762238
118.762604
118.763184
118.763702
118.764160
118.764740
118.765289
118.765808
118.766266
118.666534
118.667175
118.668060
118.668793
118.669647
118.670441
118.671234
118.672028
118.672821
118.673615
118.679169
118.679993
118.680817
118.681488
118.682251
118.683044
118.683807
118.684479
118.685242
118.686035
118.691345
118.692047
118.692810
118.693542
118.694305
118.695038
118.695770
118.696442
118.697083
118.697845
118.703003
118.703766
118.704376
118.705017
118.705719
118.706451
118.707123
118.707794
118.708466
118.709076
118.714050
118.714752
118.715393
118.716034
118.716705
118.717377
118.718018
118.718628
118.719238
118.719940
118.724548
118.725220
118.725983
118.726562
118.727142
118.727692
118.728333
118.728943
118.729645
118.730225
118.734711
118.735291
118.735931
118.736359
118.737061
118.737671
118.738312
118.738922
118.739380
118.740021
118.744232
118.744812
118.745392
118.746033
118.746613
118.747131
118.747742
118.748322
118.748749
118.749329
118.753387
118.753937
118.754547
118.755066
118.755646
118.756134
118.756714
118.757294
118.757782
118.758270
118.762207
118.762634
118.763153
118.763702
118.764160
118.764771
118.765289
118.765778
118.766266
118.766724
118.667206
118.668091
118.668823
118.669678
118.670471
118.671234
118.672058
118.672882
118.673615
118.674286
118.680023
118.680847
118.681549
118.682220
118.683014
118.683777
118.684509
118.685211
118.686066
118.686737
118.692078
118.692841
118.693542
118.694305
118.695038
118.695770
118.696411
118.697052
118.697876
118.698517
118.703766
118.704376
118.705048
118.705780
118.706390
118.707123
118.707794
118.708466
118.709137
118.709869
118.714752
118.715363
118.716064
118.716736
118.717346
118.718018
118.718658
118.719269
118.719910
118.720581
118.725250
118.725983
118.726562
118.727112
118.727722
118.728333
118.728973
118.729645
118.730225
118.730804
118.735291
118.735962
118.736420
118.737091
118.737701
118.738342
118.738983
118.739410
118.740021
118.740540
118.744843
118.745392
118.746063
118.746613
118.747131
118.747711
118.748322
118.748749
118.749329
118.749939
118.753937
118.754517
118.755096
118.755676
118.756165
118.756683
118.757324
118.757812
118.758270
118.758789
118.762604
118.763184
118.763733
118.764191
118.764801
118.765289
118.765778
118.766266
118.766724
118.767273
118.668091
118.668823
118.669678
118.670471
118.671234
118.672119
118.672821
118.673615
118.674347
118.675201
118.680817
118.681580
118.682220
118.683014
118.683838
118.684479
118.685272
118.686127
118.686737
118.687408
118.692902
118.693573
118.694305
118.694977
118.695770
118.696442
118.697021
118.697876
118.698517
118.699280
118.704407
118.705048
118.705780
118.706451
118.707092
118.707733
118.708466
118.709137
118.709900
118.710419
118.715363
118.716034
118.716705
118.717377
118.718018
118.718658
118.719269
118.719940
118.720551
118.721130
118.725983
118.726562
118.727081
118.727722
118.728363
118.729004
118.729614
118.730225
118.730804
118.731415
118.735931
118.736389
118.737091
118.737732
118.738342
118.738953
118.739410
118.739990
118.740540
118.741180
118.745392
118.746063
118.746613
118.747162
118.747772
118.748322
118.748749
118.749329
118.749969
118.750336
118.754547
118.755066
118.755646
118.756165
118.756683
118.757324
118.757843
118.758270
118.758789
118.759308
118.763153
118.763763
118.764191
118.764801
118.765320
118.765808
118.766266
118.766724
118.767303
118.767761
118.668793
118.669678
118.670441
118.671295
118.672089
118.672852
118.673645
118.674347
118.675201
118.675873
118.681549
118.682220
118.683075
118.683807
118.684479
118.685242
118.686127
118.686768
118.687408
118.688263
118.693573
118.694336
118.695068
118.695740
118.696411
118.697052
118.697906
118.698578
118.699249
118.699982
118.704987
118.705780
118.706482
118.707123
118.707733
118.708496
118.709106
118.709900
118.710480
118.711212
118.716064
118.716705
118.717407
118.717987
118.718658
118.719299
118.719940
118.720581
118.721100
118.721802
118.726562
118.727142
118.727722
118.728363
118.729004
118.729645
118.730225
118.730804
118.731415
118.732147
118.736389
118.737091
118.737701
118.738312
118.738983
118.739410
118.739990
118.740570
118.741150
118.741730
118.746063
118.746613
118.747131
118.747772
118.748322
118.748810
118.749359
118.749969
118.750336
118.750946
118.755066
118.755646
118.756165
118.756744
118.757324
118.757843
118.758301
118.758820
118.759308
118.759888
118.763794
118.764221
118.764801
118.765350
118.765839
118.766296
118.766693
118.767303
118.767761
118.768341
118.669678
118.670441
118.671295
118.672119
118.672821
118.673615
118.674347
118.675201
118.675934
118.676727
118.682281
118.683075
118.683838
118.684509
118.685272
118.686127
118.686798
118.687439
118.688263
118.688934
118.694305
118.695038
118.695740
118.696442
118.697083
118.697906
118.698578
118.699280
118.700043
118.700623
118.705719
118.706390
118.707123
118.707764
118.708466
118.709106
118.709900
118.710449
118.711243
118.711823
118.716705
118.717377
118.718048
118.718658
118.719269
118.719940
118.720581
118.721161
118.721832
118.722504
118.727112
118.727753
118.728424
118.729034
118.729645
118.730225
118.730835
118.731415
118.732117
118.732605
118.737091
118.737732
118.738312
118.738983
118.739349
118.739990
118.740570
118.741241
118.741730
118.742279
118.746643
118.747162
118.747742
118.748322
118.748810
118.749390
118.749939
118.750366
118.750946
118.751556
118.755646
118.756134
118.756714
118.757324
118.757843
118.758270
118.758820
118.759277
118.759918
118.760437
118.764252
118.764801
118.765350
118.765808
118.766266
118.766754
118.767242
118.767792
118.768341
118.768890

SCALARS Alpha float 1
LOOKUP_TABLE default
-2.494392
-2.494381
-2.494371
-2.494362
-2.494353
-2.494342
-2.494333
-2.494323
-2.494313
-2.494303
-2.494234
-2.494223
-2.494213
-2.494205
-2.494196
-2.494187
-2.494178
-2.494167
-2.494159
-2.494148
-2.494082
-2.494073
-2.494064
-2.494055
-2.494045
-2.494038
-2.494029
-2.494020
-2.494010
-2.494003
-2.493940
-2.493929
-2.493921
-2.493912
-2.493904
-2.493896
-2.493888
-2.493879
-2.493871
-2.493862
-2.493800
-2.493793
-2.493784
-2.493777
-2.493768
-2.493761
-2.493752
-2.493744
-2.493737
-2.493728
-2.493671
-2.493663
-2.493655
-2.493646
-2.493639
-2.493630
-2.493623
-2.493616
-2.493608
-2.493601
-2.493545
-2.493539
-2.493531
-2.493524
-2.493515
-2.493508
-2.493501
-2.493494
-2.493487
-2.493479
-2.493426
-2.493418
-2.493411
-2.493406
-2.493399
-2.493390
-2.493384
-2.493376
-2.493370
-2.493362
-2.493313
-2.493306
-2.493300
-2.493292
-2.493286
-2.493279
-2.493272
-2.493266
-2.493259
-2.493252
-2.493204
-2.493198
-2.493191
-2.493185
-2.493178
-2.493172
-2.493165
-2.493161
-2.493154
-2.493147
-2.494381
-2.494371
-2.494361
-2.494353
-2.494342
-2.494333
-2.494323
-2.494312
-2.494303
-2.494294
-2.494224
-2.494214
-2.494205
-2.494195
-2.494186
-2.494178
-2.494168
-2.494159
-2.494148
-2.494140
-2.494074
-2.494063
-2.494055
-2.494046
-2.494038
-2.494029
-2.494020
-2.494010
-2.494003
-2.493993
-2.493928
-2.493922
-2.493912
-2.493904
-2.493896
-2.493887
-2.493879
-2.493871
-2.493861
-2.493854
-2.493793
-2.493784
-2.493777
-2.493768
-2.493761
-2.493752
-2.493744
-2.493736
-2.493727
-2.493720
-2.493663
-2.493655
-2.493647
-2.493639
-2.493631
-2.493622
-2.493615
-2.493608
-2.493601
-2.493593
-2.493539
-2.493531
-2.493523
-2.493514
-2.493508
-2.493501
-2.493494
-2.493487
-2.493479
-2.493471
-2.493418
-2.493411
-2.493405
-2.493398
-2.493390
-2.493384
-2.493376
-2.493370
-2.493362
-2.493356
-2.493306
-2.493300
-2.493292
-2.493286
-2.493279
-2.493273
-2.493266
-2.493258
-2.493252
-2.493246
-2.493198
-2.493191
-2.493185
-2.493179
-2.493172
-2.493165
-2.493160
-2.493153
-2.493147
-2.493140
-2.494372
-2.494362
-2.494352
-2.494342
-2.494333
-2.494323
-2.494312
-2.494303
-2.494294
-2.494283
-2.494214
-2.494205
-2.494195
-2.494187
-2.494178
-2.494167
-2.494159
-2.494149
-2.494140
-2.494131
-2.494064
-2.494055
-2.494045
-2.494037
-2.494028
-2.494019
-2.494010
-2.494003
-2.493993
-2.493984
-2.493921
-2.493912
-2.493903
-2.493896
-2.493887
-2.493878
-2.493870
-2.493862
-2.493854
-2.493845
-2.493784
-2.493777
-2.493768
-2.493760
-2.493752
-2.493744
-2.493736
-2.493728
-2.493719
-2.493711
-2.493655
-2.493647
-2.493639
-2.493631
-2.493623
-2.493616
-2.493608
-2.493601
-2.493593
-2.493586
-2.493531
-2.493523
-2.493514
-2.493508
-2.493500
-2.493494
-2.493487
-2.493479
-2.493472
-2.493464
-2.493411
-2.493405
-2.493398
-2.493390
-2.493384
-2.493376
-2.493370
-2.493363
-2.493356
-2.493350
-2.493300
-2.493291
-2.493285
-2.493279
-2.493273
-2.493265
-2.493259
-2.493252
-2.493246
-2.493239
-2.493191
-2.493185
-2.493178
-2.493172
-2.493165
-2.493160
-2.493153
-2.493147
-2.493141
-2.493135
-2.494362
-2.494352
-2.494342
-2.494333
-2.494323
-2.494313
-2.494303
-2.494293
-2.494283
-2.494275
-2.494204
-2.494195
-2.494186
-2.494177
-2.494167
-2.494158
-2.494149
-2.494140
-2.494131
-2.494122
-2.494055
-2.494046
-2.494038
-2.494028
-2.494020
-2.494010
-2.494002
-2.493993
-2.493985
-2.493976
-2.493912
-2.493903
-2.493895
-2.493887
-2.493878
-2.493870
-2.493862
-2.493854
-2.493845
-2.493837
-2.493777
-2.493768
-2.493761
-2.493752
-2.493744
-2.493736
-2.493728
-2.493720
-2.493711
-2.493705
-2.493647
-2.493639
-2.493631
-2.493623
-2.493615
-2.493608
-2.493601
-2.493593
-2.493586
-2.493579
-2.493523
-2.493514
-2.493508
-2.493500
-2.493494
-2.493486
-2.493479
-2.493472
-2.493465
-2.493457
-2.493405
-2.493398
-2.493390
-2.493384
-2.493376
-2.493370
-2.493362
-2.493356
-2.493349
-2.493342
-2.493292
-2.493284
-2.493279
-2.493273
-2.493266
-2.493258
-2.493252
-2.493246
-2.493239
-2.493234
-2.493185
-2.493178
-2.493172
-2.493165
-2.493160
-2.493153
-2.493147
-2.493141
-2.493135
-2.493127
-2.494353
-2.494342
-2.494333
-2.494323
-2.494312
-2.494303
-2.494293
-2.494283
-2.494275
-2.494264
-2.494195
-2.494186
-2.494177
-2.494167
-2.494158
-2.494149
-2.494140
-2.494131
-2.494122
-2.494112
-2.494045
-2.494037
-2.494028
-2.494020
-2.494010
-2.494003
-2.493993
-2.493983
-2.493976
-2.493966
-2.493904
-2.493896
-2.493888
-2.493878
-2.493870
-2.493862
-2.493853
-2.493845
-2.493836
-2.493829
-2.493768
-2.493761
-2.493752
-2.493744
-2.493736
-2.493729
-2.493720
-2.493711
-2.493705
-2.493696
-2.493639
-2.493631
-2.493622
-2.493616
-2.493608
-2.493601
-2.493593
-2.493586
-2.493579
-2.493572
-2.493514
-2.493508
-2.493501
-2.493494
-2.493486
-2.493478
-2.493472
-2.493464
-2.493458
-2.493449
-2.493398
-2.493390
-2.493384
-2.493376
-2.493369
-2.493362
-2.493356
-2.493350
-2.493341
-2.493335
-2.493285
-2.493279
-2.493273
-2.493265
-2.493258
-2.493252
-2.493246
-2.493239
-2.493234
-2.493226
-2.493178
-2.493172
-2.493165
-2.493160
-2.493153
-2.493146
-2.493141
-2.493135
-2.493128
-2.493122
-2.494341
-2.494333
-2.494322
-2.494313
-2.494303
-2.494294
-2.494282
-2.494275
-2.494264
-2.494256
-2.494186
-2.494178
-2.494168
-2.494159
-2.494149
-2.494140
-2.494132
-2.494122
-2.494112
-2.494103
-2.494037
-2.494028
-2.494019
-2.494009
-2.494002
-2.493994
-2.493984
-2.493976
-2.493966
-2.493958
-2.493895
-2.493887
-2.493878
-2.493870
-2.493862
-2.493853
-2.493845
-2.493837
-2.493828
-2.493821
-2.493760
-2.493752
-2.493744
-2.493736
-2.493728
-2.493719
-2.493711
-2.493705
-2.493696
-2.493688
-2.493630
-2.493622
-2.493615
-2.493608
-2.493601
-2.493593
-2.493585
-2.493579
-2.493571
-2.493562
-2.493508
-2.493501
-2.493494
-2.493486
-2.493479
-2.493472
-2.493465
-2.493457
-2.493449
-2.493443
-2.493390
-2.493384
-2.493376
-2.493369
-2.493362
-2.493356
-2.493349
-2.493342
-2.493335
-2.493329
-2.493279
-2.493273
-2.493265
-2.493258
-2.493252
-2.493245
-2.493239
-2.493234
-2.493226
-2.493219
-2.493172
-2.493165
-2.493160
-2.493152
-2.493147
-2.493140
-2.493134
-2.493127
-2.493122
-2.493115
-2.494332
-2.494323
-2.494313
-2.494303
-2.494293
-2.494283
-2.494275
-2.494263
-2.494255
-2.494246
-2.494177
-2.494167
-2.494159
-2.494149
-2.494139
-2.494131
-2.494122
-2.494112
-2.494102
-2.494094
-2.494028
-2.494018
-2.494010
-2.494002
-2.493992
-2.493984
-2.493976
-2.493966
-2.493959
-2.493950
-2.493888
-2.493878
-2.493870
-2.493862
-2.493853
-2.493845
-2.493837
-2.493828
-2.493821
-2.493812
-2.493752
-2.493745
-2.493735
-2.493728
-2.493719
-2.493711
-2.493705
-2.493696
-2.493689
-2.493681
-2.493622
-2.493616
-2.493608
-2.493601
-2.493593
-2.493585
-2.493579
-2.493571
-2.493562
-2.493555
-2.493501
-2.493494
-2.493486
-2.493479
-2.493472
-2.493465
-2.493458
-2.493450
-2.493443
-2.493436
-2.493383
-2.493376
-2.493369
-2.493361
-2.493356
-2.493349
-2.493341
-2.493335
-2.493329
-2.493321
-2.493273
-2.493265
-2.493258
-2.493252
-2.493245
-2.493239
-2.493233
-2.493226
-2.493220
-2.493214
-2.493165
-2.493160
-2.493153
-2.493147
-2.493140
-2.493134
-2.493128
-2.493122
-2.493116
-2.493109
-2.494323
-2.494313
-2.494302
-2.494293
-2.494283
-2.494276
-2.494264
-2.494256
-2.494246
-2.494236
-2.494167
-2.494159
-2.494149
-2.494139
-2.494131
-2.494123
-2.494112
-2.494102
-2.494094
-2.494085
-2.494019
-2.494010
-2.494001
-2.493993
-2.493984
-2.493975
-2.493966
-2.493959
-2.493950
-2.493941
-2.493878
-2.493870
-2.493862
-2.493853
-2.493845
-2.493837
-2.493829
-2.493821
-2.493812
-2.493803
-2.493745
-2.493735
-2.493728
-2.493719
-2.493711
-2.493705
-2.493696
-2.493689
-2.493681
-2.493674
-2.493615
-2.493607
-2.493601
-2.493593
-2.493585
-2.493579
-2.493571
-2.493563
-2.493555
-2.493546
-2.493494
-2.493486
-2.493478
-2.493472
-2.493465
-2.493457
-2.493450
-2.493443
-2.493435
-2.493429
-2.493376
-2.493369
-2.493361
-2.493356
-2.493349
-2.493340
-2.493335
-2.493329
-2.493321
-2.493316
-2.493265
-2.493258
-2.493252
-2.493245
-2.493239
-2.493234
-2.493226
-2.493219
-2.493213
-2.493207
-2.493160
-2.493152
-2.493147
-2.493140
-2.493134
-2.493128
-2.493121
-2.493116
-2.493109
-2.493103
-2.494312
-2.494303
-2.494292
-2.494282
-2.494276
-2.494263
-2.494255
-2.494246
-2.494237
-2.494225
-2.494157
-2.494148
-2.494139
-2.494131
-2.494121
-2.494112
-2.494102
-2.494094
-2.494085
-2.494076
-2.494009
-2.494001
-2.493992
-2.493984
-2.493975
-2.493966
-2.493958
-2.493950
-2.493941
-2.493932
-2.493870
-2.493862
-2.493852
-2.493845
-2.493837
-2.493829
-2.493821
-2.493812
-2.493803
-2.493797
-2.493735
-2.493728
-2.493719
-2.493711
-2.493704
-2.493696
-2.493690
-2.493681
-2.493673
-2.493665
-2.493608
-2.493601
-2.493592
-2.493584
-2.493578
-2.493572
-2.493562
-2.493554
-2.493547
-2.493539
-2.493486
-2.493478
-2.493472
-2.493464
-2.493457
-2.493450
-2.493443
-2.493436
-2.493428
-2.493421
-2.493369
-2.493361
-2.493355
-2.493349
-2.493340
-2.493335
-2.493329
-2.493321
-2.493316
-2.493308
-2.493257
-2.493252
-2.493245
-2.493239
-2.493234
-2.493226
-2.493219
-2.493213
-2.493207