# vtk DataFile Version 3.0
PINN prediction t=23834.482421875
ASCII
DATASET UNSTRUCTURED_GRID
POINTS 1000 float
0.000000 0.000000 0.000000
0.000000 0.000000 0.044444
0.000000 0.000000 0.088889
0.000000 0.000000 0.133333
0.000000 0.000000 0.177778
0.000000 0.000000 0.222222
0.000000 0.000000 0.266667
0.000000 0.000000 0.311111
0.000000 0.000000 0.355556
0.000000 0.000000 0.400000
0.000000 0.088889 0.000000
0.000000 0.088889 0.044444
0.000000 0.088889 0.088889
0.000000 0.088889 0.133333
0.000000 0.088889 0.177778
0.000000 0.088889 0.222222
0.000000 0.088889 0.266667
0.000000 0.088889 0.311111
0.000000 0.088889 0.355556
0.000000 0.088889 0.400000
0.000000 0.177778 0.000000
0.000000 0.177778 0.044444
0.000000 0.177778 0.088889
0.000000 0.177778 0.133333
0.000000 0.177778 0.177778
0.000000 0.177778 0.222222
0.000000 0.177778 0.266667
0.000000 0.177778 0.311111
0.000000 0.177778 0.355556
0.000000 0.177778 0.400000
0.000000 0.266667 0.000000
0.000000 0.266667 0.044444
0.000000 0.266667 0.088889
0.000000 0.266667 0.133333
0.000000 0.266667 0.177778
0.000000 0.266667 0.222222
0.000000 0.266667 0.266667
0.000000 0.266667 0.311111
0.000000 0.266667 0.355556
0.000000 0.266667 0.400000
0.000000 0.355556 0.000000
0.000000 0.355556 0.044444
0.000000 0.355556 0.088889
0.000000 0.355556 0.133333
0.000000 0.355556 0.177778
0.000000 0.355556 0.222222
0.000000 0.355556 0.266667
0.000000 0.355556 0.311111
0.000000 0.355556 0.355556
0.000000 0.355556 0.400000
0.000000 0.444444 0.000000
0.000000 0.444444 0.044444
0.000000 0.444444 0.088889
0.000000 0.444444 0.133333
0.000000 0.444444 0.177778
0.000000 0.444444 0.222222
0.000000 0.444444 0.266667
0.000000 0.444444 0.311111
0.000000 0.444444 0.355556
0.000000 0.444444 0.400000
0.000000 0.533333 0.000000
0.000000 0.533333 0.044444
0.000000 0.533333 0.088889
0.000000 0.533333 0.133333
0.000000 0.533333 0.177778
0.000000 0.533333 0.222222
0.000000 0.533333 0.266667
0.000000 0.533333 0.311111
0.000000 0.533333 0.355556
0.000000 0.533333 0.400000
0.000000 0.622222 0.000000
0.000000 0.622222 0.044444
0.000000 0.622222 0.088889
0.000000 0.622222 0.133333
0.000000 0.622222 0.177778
0.000000 0.622222 0.222222
0.000000 0.622222 0.266667
0.000000 0.622222 0.311111
0.000000 0.622222 0.355556
0.000000 0.622222 0.400000
0.000000 0.711111 0.000000
0.000000 0.711111 0.044444
0.000000 0.711111 0.088889
0.000000 0.711111 0.133333
0.000000 0.711111 0.177778
0.000000 0.711111 0.222222
0.000000 0.711111 0.266667
0.000000 0.711111 0.311111
0.000000 0.711111 0.355556
0.000000 0.711111 0.400000
0.000000 0.800000 0.000000
0.000000 0.800000 0.044444
0.000000 0.800000 0.088889
0.000000 0.800000 0.133333
0.000000 0.800000 0.177778
0.000000 0.800000 0.222222
0.000000 0.800000 0.266667
0.000000 0.800000 0.311111
0.000000 0.800000 0.355556
0.000000 0.800000 0.400000
0.044444 0.000000 0.000000
0.044444 0.000000 0.044444
0.044444 0.000000 0.088889
0.044444 0.000000 0.133333
0.044444 0.000000 0.177778
0.044444 0.000000 0.222222
0.044444 0.000000 0.266667
0.044444 0.000000 0.311111
0.044444 0.000000 0.355556
0.044444 0.000000 0.400000
0.044444 0.088889 0.000000
0.044444 0.088889 0.044444
0.044444 0.088889 0.088889
0.044444 0.088889 0.133333
0.044444 0.088889 0.177778
0.044444 0.088889 0.222222
0.044444 0.088889 0.266667
0.044444 0.088889 0.311111
0.044444 0.088889 0.355556
0.044444 0.088889 0.400000
0.044444 0.177778 0.000000
0.044444 0.177778 0.044444
0.044444 0.177778 0.088889
0.044444 0.177778 0.133333
0.044444 0.177778 0.177778
0.044444 0.177778 0.222222
0.044444 0.177778 0.266667
0.044444 0.177778 0.311111
0.044444 0.177778 0.355556
0.044444 0.177778 0.400000
0.044444 0.266667 0.000000
0.044444 0.266667 0.044444
0.044444 0.266667 0.088889
0.044444 0.266667 0.133333
0.044444 0.266667 0.177778
0.044444 0.266667 0.222222
0.044444 0.266667 0.266667
0.044444 0.266667 0.311111
0.044444 0.266667 0.355556
0.044444 0.266667 0.400000
0.044444 0.355556 0.000000
0.044444 0.355556 0.044444
0.044444 0.355556 0.088889
0.044444 0.355556 0.133333
0.044444 0.355556 0.177778
0.044444 0.355556 0.222222
0.044444 0.355556 0.266667
0.044444 0.355556 0.311111
0.044444 0.355556 0.355556
0.044444 0.355556 0.400000
0.044444 0.444444 0.000000
0.044444 0.444444 0.044444
0.044444 0.444444 0.088889
0.044444 0.444444 0.133333
0.044444 0.444444 0.177778
0.044444 0.444444 0.222222
0.044444 0.444444 0.266667
0.044444 0.444444 0.311111
0.044444 0.444444 0.355556
0.044444 0.444444 0.400000
0.044444 0.533333 0.000000
0.044444 0.533333 0.044444
0.044444 0.533333 0.088889
0.044444 0.533333 0.133333
0.044444 0.533333 0.177778
0.044444 0.533333 0.222222
0.044444 0.533333 0.266667
0.044444 0.533333 0.311111
0.044444 0.533333 0.355556
0.044444 0.533333 0.400000
0.044444 0.622222 0.000000
0.044444 0.622222 0.044444
0.044444 0.622222 0.088889
0.044444 0.622222 0.133333
0.044444 0.622222 0.177778
0.044444 0.622222 0.222222
0.044444 0.622222 0.266667
0.044444 0.622222 0.311111
0.044444 0.622222 0.355556
0.044444 0.622222 0.400000
0.044444 0.711111 0.000000
0.044444 0.711111 0.044444
0.044444 0.711111 0.088889
0.044444 0.711111 0.133333
0.044444 0.711111 0.177778
0.044444 0.711111 0.222222
0.044444 0.711111 0.266667
0.044444 0.711111 0.311111
0.044444 0.711111 0.355556
0.044444 0.711111 0.400000
0.044444 0.800000 0.000000
0.044444 0.800000 0.044444
0.044444 0.800000 0.088889
0.044444 0.800000 0.133333
0.044444 0.800000 0.177778
0.044444 0.800000 0.222222
0.044444 0.800000 0.266667
0.044444 0.800000 0.311111
0.044444 0.800000 0.355556
0.044444 0.800000 0.400000
0.088889 0.000000 0.000000
0.088889 0.000000 0.044444
0.088889 0.000000 0.088889
0.088889 0.000000 0.133333
0.088889 0.000000 0.177778
0.088889 0.000000 0.222222
0.088889 0.000000 0.266667
0.088889 0.000000 0.311111
0.088889 0.000000 0.355556
0.088889 0.000000 0.400000
0.088889 0.088889 0.000000
0.088889 0.088889 0.044444
0.088889 0.088889 0.088889
0.088889 0.088889 0.133333
0.088889 0.088889 0.177778
0.088889 0.088889 0.222222
0.088889 0.088889 0.266667
0.088889 0.088889 0.311111
0.088889 0.088889 0.355556
0.088889 0.088889 0.400000
0.088889 0.177778 0.000000
0.088889 0.177778 0.044444
0.088889 0.177778 0.088889
0.088889 0.177778 0.133333
0.088889 0.177778 0.177778
0.088889 0.177778 0.222222
0.088889 0.177778 0.266667
0.088889 0.177778 0.311111
0.088889 0.177778 0.355556
0.088889 0.177778 0.400000
0.088889 0.266667 0.000000
0.088889 0.266667 0.044444
0.088889 0.266667 0.088889
0.088889 0.266667 0.133333
0.088889 0.266667 0.177778
0.088889 0.266667 0.222222
0.088889 0.266667 0.266667
0.088889 0.266667 0.311111
0.088889 0.266667 0.355556
0.088889 0.266667 0.400000
0.088889 0.355556 0.000000
0.088889 0.355556 0.044444
0.088889 0.355556 0.088889
0.088889 0.355556 0.133333
0.088889 0.355556 0.177778
0.088889 0.355556 0.222222
0.088889 0.355556 0.266667
0.088889 0.355556 0.311111
0.088889 0.355556 0.355556
0.088889 0.355556 0.400000
0.088889 0.444444 0.000000
0.088889 0.444444 0.044444
0.088889 0.444444 0.088889
0.088889 0.444444 0.133333
0.088889 0.444444 0.177778
0.088889 0.444444 0.222222
0.088889 0.444444 0.266667
0.088889 0.444444 0.311111
0.088889 0.444444 0.355556
0.088889 0.444444 0.400000
0.088889 0.533333 0.000000
0.088889 0.533333 0.044444
0.088889 0.533333 0.088889
0.088889 0.533333 0.133333
0.088889 0.533333 0.177778
0.088889 0.533333 0.222222
0.088889 0.533333 0.266667
0.088889 0.533333 0.311111
0.088889 0.533333 0.355556
0.088889 0.533333 0.400000
0.088889 0.622222 0.000000
0.088889 0.622222 0.044444
0.088889 0.622222 0.088889
0.088889 0.622222 0.133333
0.088889 0.622222 0.177778
0.088889 0.622222 0.222222
0.088889 0.622222 0.266667
0.088889 0.622222 0.311111
0.088889 0.622222 0.355556
0.088889 0.622222 0.400000
0.088889 0.711111 0.000000
0.088889 0.711111 0.044444
0.088889 0.711111 0.088889
0.088889 0.711111 0.133333
0.088889 0.711111 0.177778
0.088889 0.711111 0.222222
0.088889 0.711111 0.266667
0.088889 0.711111 0.311111
0.088889 0.711111 0.355556
0.088889 0.711111 0.400000
0.088889 0.800000 0.000000
0.088889 0.800000 0.044444
0.088889 0.800000 0.088889
0.088889 0.800000 0.133333
0.088889 0.800000 0.177778
0.088889 0.800000 0.222222
0.088889 0.800000 0.266667
0.088889 0.800000 0.311111
0.088889 0.800000 0.355556
0.088889 0.800000 0.400000
0.133333 0.000000 0.000000
0.133333 0.000000 0.044444
0.133333 0.000000 0.088889
0.133333 0.000000 0.133333
0.133333 0.000000 0.177778
0.133333 0.000000 0.222222
0.133333 0.000000 0.266667
0.133333 0.000000 0.311111
0.133333 0.000000 0.355556
0.133333 0.000000 0.400000
0.133333 0.088889 0.000000
0.133333 0.088889 0.044444
0.133333 0.088889 0.088889
0.133333 0.088889 0.133333
0.133333 0.088889 0.177778
0.133333 0.088889 0.222222
0.133333 0.088889 0.266667
0.133333 0.088889 0.311111
0.133333 0.088889 0.355556
0.133333 0.088889 0.400000
0.133333 0.177778 0.000000
0.133333 0.177778 0.044444
0.133333 0.177778 0.088889
0.133333 0.177778 0.133333
0.133333 0.177778 0.177778
0.133333 0.177778 0.222222
0.133333 0.177778 0.266667
0.133333 0.177778 0.311111
0.133333 0.177778 0.355556
0.133333 0.177778 0.400000
0.133333 0.266667 0.000000
0.133333 0.266667 0.044444
0.133333 0.266667 0.088889
0.133333 0.266667 0.133333
0.133333 0.266667 0.177778
0.133333 0.266667 0.222222
0.133333 0.266667 0.266667
0.133333 0.266667 0.311111
0.133333 0.266667 0.355556
0.133333 0.266667 0.400000
0.133333 0.355556 0.000000
0.133333 0.355556 0.044444
0.133333 0.355556 0.088889
0.133333 0.355556 0.133333
0.133333 0.355556 0.177778
0.133333 0.355556 0.222222
0.133333 0.355556 0.266667
0.133333 0.355556 0.311111
0.133333 0.355556 0.355556
0.133333 0.355556 0.400000
0.133333 0.444444 0.000000
0.133333 0.444444 0.044444
0.133333 0.444444 0.088889
0.133333 0.444444 0.133333
0.133333 0.444444 0.177778
0.133333 0.444444 0.222222
0.133333 0.444444 0.266667
0.133333 0.444444 0.311111
0.133333 0.444444 0.355556
0.133333 0.444444 0.400000
0.133333 0.533333 0.000000
0.133333 0.533333 0.044444
0.133333 0.533333 0.088889
0.133333 0.533333 0.133333
0.133333 0.533333 0.177778
0.133333 0.533333 0.222222
[...]
POINT_DATA 1000
SCALARS Temperature float 1
LOOKUP_TABLE default
117.658722
117.662415
117.666046
117.669586
117.673218
117.676971
117.680573
117.684143
117.687775
117.691345
117.717529
117.721100
117.724609
117.728088
117.731567
117.735016
117.738464
117.741974
117.745270
117.748779
117.773804
117.777161
117.780579
117.783813
117.787170
117.790405
117.793793
117.797089
117.800262
117.803619
117.827423
117.830688
117.833832
117.837006
117.840271
117.843414
117.846619
117.849701
117.852783
117.855957
117.878784
117.881836
117.884918
117.887939
117.891022
117.893921
117.896973
117.899994
117.902954
117.905853
117.927765
117.930573
117.933502
117.936371
117.939240
117.942169
117.945007
117.947906
117.950714
117.953552
117.974335
117.977142
117.979858
117.982697
117.985504
117.988129
117.990936
117.993744
117.996429
117.999207
118.018951
118.021576
118.024139
118.026886
118.029419
118.032074
118.034668
118.037292
118.039917
118.042542
118.061493
118.063995
118.066498
118.069092
118.071533
118.074066
118.076538
118.079010
118.081512
118.083954
118.102142
118.104492
118.106842
118.109283
118.111664
118.114105
118.116455
118.118744
118.121185
118.123596
117.662445
117.666046
117.669586
117.673340
117.677032
117.680573
117.684174
117.687866
117.691406
117.694977
117.721161
117.724609
117.728119
117.731598
117.735046
117.738495
117.741943
117.745331
117.748810
117.752228
117.777191
117.780548
117.783783
117.787201
117.790436
117.793793
117.797089
117.800354
117.803650
117.806915
117.830719
117.833893
117.837097
117.840332
117.843475
117.846619
117.849823
117.852844
117.855957
117.859100
117.881836
117.884918
117.888000
117.891022
117.893921
117.896973
117.900024
117.902954
117.905914
117.908966
117.930573
117.933533
117.936340
117.939270
117.942169
117.945038
117.947968
117.950714
117.953644
117.956421
117.977173
117.979889
117.982697
117.985504
117.988190
117.990997
117.993713
117.996460
117.999207
118.001892
118.021637
118.024170
118.026886
118.029449
118.032104
118.034668
118.037354
118.039948
118.042572
118.045197
118.064056
118.066498
118.069092
118.071594
118.074127
118.076538
118.079071
118.081482
118.083954
118.086456
118.104553
118.106873
118.109344
118.111786
118.114136
118.116455
118.118744
118.121246
118.123596
118.125854
117.666077
117.669708
117.673370
117.676971
117.680634
117.684235
117.687897
117.691406
117.695038
117.698669
117.724670
117.728180
117.731628
117.735077
117.738495
117.741943
117.745392
117.748840
117.752258
117.755676
117.780548
117.783905
117.787292
117.790497
117.793793
117.797089
117.800385
117.803680
117.806976
117.810272
117.833893
117.837189
117.840302
117.843506
117.846680
117.849823
117.852905
117.855988
117.859161
117.862213
117.884918
117.888031
117.891083
117.893982
117.896942
117.900055
117.903015
117.905914
117.908966
117.911865
117.933563
117.936432
117.939301
117.942169
117.945068
117.947937
117.950745
117.953583
117.956482
117.959320
117.979889
117.982758
117.985565
117.988220
117.991028
117.993713
117.996429
117.999176
118.001862
118.004547
118.024200
118.026978
118.029480
118.032135
118.034760
118.037384
118.039948
118.042572
118.045258
118.047760
118.066528
118.069122
118.071625
118.074127
118.076538
118.079132
118.081512
118.084015
118.086517
118.089020
118.106903
118.109375
118.111816
118.114166
118.116455
118.118866
118.121277
118.123596
118.125885
118.128265
117.669800
117.673431
117.677032
117.680603
117.684265
117.687897
117.691467
117.695007
117.698700
117.702179
117.728210
117.731628
117.735138
117.738495
117.742035
117.745453
117.748901
117.752289
117.755798
117.759186
117.783966
117.787262
117.790588
117.793793
117.797150
117.800476
117.803711
117.806976
117.810303
117.813446
117.837250
117.840363
117.843536
117.846710
117.849884
117.852936
117.856049
117.859192
117.862244
117.865326
117.888031
117.891052
117.894012
117.897064
117.900116
117.903076
117.906006
117.908936
117.911835
117.914917
117.936432
117.939362
117.942230
117.945099
117.947998
117.950714
117.953583
117.956512
117.959381
117.962067
117.982788
117.985565
117.988190
117.990997
117.993774
117.996521
117.999176
118.001923
118.004578
118.007294
118.027008
118.029480
118.032196
118.034821
118.037384
118.040009
118.042542
118.045227
118.047699
118.050385
118.069122
118.071655
118.074127
118.076569
118.079132
118.081573
118.084045
118.086517
118.089081
118.091400
118.109344
118.111847
118.114197
118.116455
118.118896
118.121246
118.123627
118.125946
118.128204
118.130707
117.673492
117.677094
117.680664
117.684296
117.687958
117.691467
117.695099
117.698761
117.702179
117.705780
117.731659
117.735138
117.738525
117.742035
117.745483
117.748901
117.752350
117.755798
117.759216
117.762512
117.787354
117.790588
117.793945
117.797272
117.800507
117.803741
117.807007
117.810303
117.813507
117.816711
117.840393
117.843597
117.846771
117.849915
117.852936
117.856110
117.859192
117.862274
117.865356
117.868439
117.891083
117.894073
117.897034
117.900177
117.903015
117.906067
117.909027
117.911896
117.915009
117.917877
117.939331
117.942291
117.945160
117.948029
117.950745
117.953674
117.956512
117.959412
117.962097
117.964996
117.985596
117.988251
117.991028
117.993805
117.996613
117.999207
118.001984
118.004578
118.007324
118.009979
118.029510
118.032196
118.034760
118.037445
118.040009
118.042603
118.045197
118.047760
118.050446
118.052948
118.071716
118.074127
118.076569
118.079163
118.081573
118.084137
118.086578
118.089081
118.091461
118.093903
118.111877
118.114227
118.116547
118.118896
118.121307
118.123688
118.125977
118.128235
118.130646
118.133026
117.677094
117.680725
117.684357
117.688019
117.691498
117.695099
117.698700
117.702240
117.705841
117.709381
117.735199
117.738617
117.742126
117.745514
117.748932
117.752411
117.755768
117.759186
117.762604
117.765930
117.790680
117.793976
117.797302
117.800568
117.803741
117.807098
117.810272
117.813538
117.816772
117.819977
117.843597
117.846832
117.849915
117.852997
117.856201
117.859283
117.862274
117.865417
117.868469
117.871613
117.894165
117.897064
117.900146
117.903046
117.906097
117.909027
117.911896
117.914978
117.917938
117.920898
117.942261
117.945160
117.948059
117.950836
117.953735
117.956573
117.959412
117.962219
117.964935
117.967834
117.988251
117.991058
117.993805
117.996582
117.999268
118.001984
118.004639
118.007324
118.009979
118.012665
118.032196
118.034790
118.037445
118.040009
118.042725
118.045197
118.047821
118.050446
118.052948
118.055511
118.074188
118.076630
118.079163
118.081604
118.084137
118.086609
118.089111
118.091522
118.093964
118.096375
118.114227
118.116547
118.118927
118.121368
118.123627
118.125946
118.128357
118.130676
118.133057
118.135406
117.680786
117.684418
117.688049
117.691559
117.695129
117.698700
117.702240
117.705902
117.709412
117.712952
117.738617
117.742157
117.745544
117.748993
117.752411
117.755890
117.759216
117.762665
117.766022
117.769348
117.793945
117.797241
117.800629
117.803864
117.807037
117.810333
117.813599
117.816833
117.820099
117.823242
117.846832
117.849945
117.852997
117.856171
117.859253
117.862335
117.865417
117.868561
117.871674
117.874634
117.897125
117.900177
117.903137
117.906097
117.909119
117.911957
117.915070
117.917999
117.920929
117.923798
117.945160
117.948059
117.950867
117.953766
117.956573
117.959442
117.962250
117.964996
117.967865
117.970642
117.991119
117.993866
117.996643
117.999268
118.001953
118.004639
118.007355
118.010040
118.012665
118.015289
118.034882
118.037476
118.039978
118.042725
118.045258
118.047852
118.050415
118.053009
118.055511
118.058136
118.076721
118.079132
118.081604
118.084137
118.086609
118.089142
118.091583
118.093964
118.096405
118.098846
118.116608
118.118988
118.121307
118.123627
118.125977
118.128387
118.130737
118.133087
118.135376
118.137726
117.684448
117.688080
117.691589
117.695129
117.698761
117.702332
117.705933
117.709503
117.712952
117.716400
117.742157
117.745575
117.748993
117.752533
117.755859
117.759338
117.762695
117.766052
117.769379
117.772858
117.797241
117.800690
117.803894
117.807098
117.810333
117.813660
117.816803
117.820068
117.823303
117.826477
117.849976
117.852997
117.856171
117.859283
117.862305
117.865448
117.868591
117.871735
117.874695
117.877747
117.900116
117.903107
117.906036
117.909119
117.912018
117.915131
117.917999
117.920868
117.923828
117.926727
117.948090
117.950867
117.953796
117.956635
117.959412
117.962250
117.965027
117.967865
117.970612
117.973389
117.993774
117.996613
117.999329
118.001984
118.004669
118.007355
118.010040
118.012726
118.015320
118.018036
118.037537
118.040039
118.042755
118.045258
118.047913
118.050507
118.053009
118.055573
118.058136
118.060577
118.079132
118.081665
118.084137
118.086670
118.089142
118.091614
118.094025
118.096405
118.098907
118.101196
118.118988
118.121368
118.123688
118.126007
118.128387
118.130768
118.133087
118.135406
118.137726
118.140106
117.688110
117.691620
117.695221
117.698761
117.702362
117.706024
117.709503
117.712952
117.716492
117.720032
117.745605
117.749023
117.752502
117.755890
117.759308
117.762726
117.766083
117.769440
117.772888
117.776093
117.800720
117.803925
117.807129
117.810394
117.813629
117.816864
117.820038
117.823273
117.826508
117.829803
117.852997
117.856140
117.859344
117.862396
117.865448
117.868652
117.871735
117.874725
117.877808
117.880859
117.903107
117.906128
117.909149
117.912018
117.915070
117.918030
117.920959
117.923889
117.926758
117.929657
117.950897
117.953857
117.956604
117.959503
117.962311
117.965057
117.967896
117.970642
117.973450
117.976257
117.996613
117.999329
118.001984
118.004730
118.007385
118.010071
118.012817
118.015350
118.018127
118.020844
118.040070
118.042755
118.045258
118.047882
118.050568
118.053040
118.055634
118.058197
118.060669
118.063202
118.081757
118.084198
118.086731
118.089172
118.091644
118.094086
118.096436
118.098907
118.101227
118.103668
118.121338
118.123749
118.126068
118.128448
118.130798
118.133118
118.135498
118.137726
118.140106
118.142365
117.691681
117.695312
117.698883
117.702454
117.706085
117.709534
117.713043
117.716522
117.720062
117.723572
117.749054
117.752594
117.755951
117.759369
117.762756
117.766113
117.769440
117.772858
117.776093
117.779510
117.803925
117.807159
117.810455
117.813690
117.816925
117.820129
117.823303
117.826569
117.829865
117.832886
117.856232
117.859375
117.862396
117.865509
117.868652
117.871826
117.874756
117.877869
117.880920
117.883942
117.906158
117.909149
117.912109
117.915131
117.918030
117.920990
117.923920
117.926788
117.929657
117.932648
117.953857
117.956604
117.959503
117.962311
117.965027
117.967896
117.970642
117.973541
117.976318
117.979126
117.999329
118.002045
118.004791
118.007477
118.010040
118.012817
118.015381
118.018127
118.020782
118.023407
118.042725
118.045319
118.047943
118.050598
118.053070
118.055634
118.058167
118.060608
118.063232
118.065826
118.084259
118.086700
118.089142
118.091644
118.094116
118.096466
118.098907
118.101349
118.103729
118.106140
118.123718
118.126099
118.128510
118.130829
118.133148
118.135498
118.137787
118.140106
118.142426
118.144714

SCALARS Alpha float 1
LOOKUP_TABLE default
-2.506676
-2.506632
-2.506587
-2.506541
-2.506498
-2.506454
-2.506408
-2.506364
-2.506321
-2.506278
-2.505955
-2.505913
-2.505869
-2.505827
-2.505785
-2.505741
-2.505698
-2.505657
-2.505615
-2.505573
-2.505266
-2.505225
-2.505186
-2.505144
-2.505103
-2.505063
-2.505023
-2.504982
-2.504942
-2.504902
-2.504609
-2.504570
-2.504531
-2.504491
-2.504453
-2.504415
-2.504376
-2.504338
-2.504299
-2.504260
-2.503983
-2.503944
-2.503905
-2.503870
-2.503832
-2.503796
-2.503759
-2.503723
-2.503685
-2.503650
-2.503381
-2.503345
-2.503310
-2.503276
-2.503241
-2.503205
-2.503170
-2.503134
-2.503101
-2.503067
-2.502810
-2.502776
-2.502743
-2.502708
-2.502675
-2.502641
-2.502608
-2.502575
-2.502541
-2.502509
-2.502265
-2.502233
-2.502200
-2.502169
-2.502136
-2.502103
-2.502072
-2.502039
-2.502008
-2.501976
-2.501745
-2.501714
-2.501682
-2.501652
-2.501621
-2.501591
-2.501559
-2.501529
-2.501500
-2.501468
-2.501247
-2.501218
-2.501188
-2.501159
-2.501129
-2.501101
-2.501072
-2.501042
-2.501014
-2.500984
-2.506632
-2.506586
-2.506542
-2.506497
-2.506453
-2.506408
-2.506364
-2.506320
-2.506277
-2.506233
-2.505913
-2.505869
-2.505826
-2.505785
-2.505741
-2.505698
-2.505656
-2.505615
-2.505574
-2.505531
-2.505225
-2.505184
-2.505143
-2.505103
-2.505062
-2.505023
-2.504982
-2.504941
-2.504901
-2.504862
-2.504570
-2.504530
-2.504491
-2.504453
-2.504415
-2.504376
-2.504337
-2.504299
-2.504260
-2.504223
-2.503944
-2.503906
-2.503870
-2.503833
-2.503796
-2.503759
-2.503723
-2.503685
-2.503649
-2.503613
-2.503346
-2.503310
-2.503275
-2.503240
-2.503204
-2.503170
-2.503133
-2.503100
-2.503066
-2.503029
-2.502776
-2.502742
-2.502708
-2.502675
-2.502640
-2.502607
-2.502575
-2.502541
-2.502508
-2.502474
-2.502232
-2.502199
-2.502168
-2.502135
-2.502103
-2.502071
-2.502040
-2.502008
-2.501976
-2.501945
-2.501714
-2.501681
-2.501651
-2.501620
-2.501591
-2.501558
-2.501528
-2.501500
-2.501468
-2.501439
-2.501216
-2.501188
-2.501159
-2.501129
-2.501100
-2.501072
-2.501042
-2.501013
-2.500984
-2.500955
-2.506586
-2.506540
-2.506497
-2.506452
-2.506408
-2.506362
-2.506320
-2.506278
-2.506233
-2.506188
-2.505868
-2.505825
-2.505784
-2.505741
-2.505698
-2.505656
-2.505614
-2.505572
-2.505530
-2.505490
-2.505184
-2.505144
-2.505103
-2.505061
-2.505022
-2.504982
-2.504941
-2.504901
-2.504862
-2.504822
-2.504530
-2.504490
-2.504453
-2.504414
-2.504375
-2.504336
-2.504298
-2.504259
-2.504222
-2.504184
-2.503905
-2.503869
-2.503831
-2.503795
-2.503758
-2.503722
-2.503685
-2.503649
-2.503613
-2.503574
-2.503309
-2.503275
-2.503240
-2.503204
-2.503170
-2.503133
-2.503100
-2.503065
-2.503029
-2.502995
-2.502741
-2.502708
-2.502674
-2.502641
-2.502607
-2.502574
-2.502540
-2.502507
-2.502474
-2.502442
-2.502199
-2.502167
-2.502136
-2.502103
-2.502071
-2.502039
-2.502007
-2.501977
-2.501945
-2.501912
-2.501681
-2.501652
-2.501620
-2.501590
-2.501558
-2.501528
-2.501500
-2.501467
-2.501439
-2.501408
-2.501187
-2.501159
-2.501129
-2.501099
-2.501071
-2.501042
-2.501013
-2.500984
-2.500955
-2.500926
-2.506540
-2.506498
-2.506452
-2.506407
-2.506363
-2.506320
-2.506276
-2.506232
-2.506188
-2.506144
-2.505825
-2.505783
-2.505741
-2.505697
-2.505655
-2.505614
-2.505573
-2.505529
-2.505489
-2.505447
-2.505143
-2.505103
-2.505061
-2.505022
-2.504982
-2.504940
-2.504900
-2.504861
-2.504821
-2.504781
-2.504491
-2.504452
-2.504414
-2.504375
-2.504335
-2.504297
-2.504260
-2.504222
-2.504184
-2.504146
-2.503868
-2.503831
-2.503795
-2.503757
-2.503722
-2.503685
-2.503649
-2.503611
-2.503574
-2.503539
-2.503274
-2.503240
-2.503203
-2.503169
-2.503133
-2.503099
-2.503064
-2.503029
-2.502995
-2.502960
-2.502707
-2.502676
-2.502640
-2.502607
-2.502574
-2.502540
-2.502507
-2.502474
-2.502440
-2.502409
-2.502168
-2.502135
-2.502103
-2.502070
-2.502039
-2.502007
-2.501976
-2.501944
-2.501912
-2.501882
-2.501651
-2.501620
-2.501590
-2.501558
-2.501529
-2.501499
-2.501467
-2.501438
-2.501408
-2.501376
-2.501159
-2.501128
-2.501100
-2.501071
-2.501042
-2.501013
-2.500983
-2.500955
-2.500926
-2.500897
-2.506496
-2.506451
-2.506406
-2.506363
-2.506319
-2.506275
-2.506230
-2.506187
-2.506144
-2.506101
-2.505782
-2.505740
-2.505698
-2.505655
-2.505614
-2.505571
-2.505529
-2.505489
-2.505447
-2.505404
-2.505102
-2.505061
-2.505021
-2.504981
-2.504939
-2.504900
-2.504860
-2.504821
-2.504781
-2.504742
-2.504452
-2.504412
-2.504374
-2.504335
-2.504297
-2.504260
-2.504222
-2.504183
-2.504146
-2.504107
-2.503830
-2.503794
-2.503757
-2.503721
-2.503685
-2.503647
-2.503611
-2.503575
-2.503538
-2.503502
-2.503239
-2.503203
-2.503169
-2.503133
-2.503098
-2.503064
-2.503029
-2.502995
-2.502960
-2.502926
-2.502675
-2.502640
-2.502607
-2.502573
-2.502539
-2.502507
-2.502473
-2.502441
-2.502408
-2.502375
-2.502134
-2.502103
-2.502070
-2.502039
-2.502006
-2.501976
-2.501943
-2.501912
-2.501881
-2.501849
-2.501619
-2.501590
-2.501558
-2.501528
-2.501497
-2.501467
-2.501437
-2.501408
-2.501377
-2.501348
-2.501129
-2.501099
-2.501071
-2.501042
-2.501012
-2.500983
-2.500954
-2.500926
-2.500897
-2.500868
-2.506450
-2.506407
-2.506363
-2.506318
-2.506275
-2.506230
-2.506187
-2.506144
-2.506100
-2.506056
-2.505739
-2.505697
-2.505655
-2.505613
-2.505571
-2.505528
-2.505488
-2.505446
-2.505404
-2.505364
-2.505061
-2.505020
-2.504981
-2.504939
-2.504900
-2.504860
-2.504820
-2.504780
-2.504742
-2.504703
-2.504413
-2.504374
-2.504335
-2.504296
-2.504259
-2.504221
-2.504183
-2.504146
-2.504107
-2.504070
-2.503794
-2.503758
-2.503721
-2.503685
-2.503647
-2.503611
-2.503574
-2.503539
-2.503502
-2.503466
-2.503203
-2.503169
-2.503132
-2.503098
-2.503064
-2.503030
-2.502994
-2.502960
-2.502926
-2.502891
-2.502639
-2.502606
-2.502574
-2.502539
-2.502506
-2.502473
-2.502440
-2.502407
-2.502375
-2.502342
-2.502103
-2.502069
-2.502038
-2.502006
-2.501976
-2.501943
-2.501911
-2.501881
-2.501849
-2.501817
-2.501589
-2.501558
-2.501527
-2.501498
-2.501467
-2.501438
-2.501407
-2.501376
-2.501347
-2.501316
-2.501099
-2.501070
-2.501041
-2.501011
-2.500983
-2.500954
-2.500925
-2.500896
-2.500868
-2.500839
-2.506406
-2.506362
-2.506318
-2.506274
-2.506230
-2.506186
-2.506143
-2.506100
-2.506056
-2.506013
-2.505697
-2.505654
-2.505612
-2.505570
-2.505528
-2.505488
-2.505445
-2.505403
-2.505363
-2.505322
-2.505019
-2.504980
-2.504939
-2.504898
-2.504859
-2.504819
-2.504779
-2.504741
-2.504702
-2.504662
-2.504373
-2.504335
-2.504297
-2.504259
-2.504220
-2.504182
-2.504144
-2.504108
-2.504069
-2.504031
-2.503758
-2.503721
-2.503684
-2.503646
-2.503610
-2.503574
-2.503538
-2.503501
-2.503465
-2.503429
-2.503167
-2.503132
-2.503098
-2.503063
-2.503029
-2.502994
-2.502960
-2.502925
-2.502890
-2.502856
-2.502605
-2.502573
-2.502539
-2.502506
-2.502473
-2.502439
-2.502407
-2.502375
-2.502341
-2.502310
-2.502069
-2.502038
-2.502006
-2.501976
-2.501942
-2.501911
-2.501880
-2.501848
-2.501816
-2.501786
-2.501557
-2.501527
-2.501498
-2.501466
-2.501437
-2.501406
-2.501376
-2.501347
-2.501317
-2.501287
-2.501070
-2.501041
-2.501011
-2.500982
-2.500954
-2.500926
-2.500896
-2.500868
-2.500838
-2.500811
-2.506361
-2.506317
-2.506273
-2.506230
-2.506186
-2.506143
-2.506099
-2.506055
-2.506013
-2.505970
-2.505654
-2.505612
-2.505570
-2.505529
-2.505487
-2.505445
-2.505402
-2.505363
-2.505320
-2.505280
-2.504979
-2.504939
-2.504898
-2.504859
-2.504819
-2.504779
-2.504740
-2.504701
-2.504661
-2.504621
-2.504333
-2.504296
-2.504258
-2.504220
-2.504182
-2.504144
-2.504107
-2.504068
-2.504031
-2.503993
-2.503720
-2.503684
-2.503646
-2.503609
-2.503574
-2.503538
-2.503501
-2.503465
-2.503429
-2.503394
-2.503132
-2.503097
-2.503063
-2.503029
-2.502994
-2.502959
-2.502924
-2.502890
-2.502856
-2.502822
-2.502573
-2.502539
-2.502505
-2.502472
-2.502439
-2.502407
-2.502374
-2.502341
-2.502309
-2.502277
-2.502038
-2.502006
-2.501975
-2.501942
-2.501911
-2.501879
-2.501847
-2.501816
-2.501787
-2.501755
-2.501527
-2.501498
-2.501466
-2.501437
-2.501406
-2.501375
-2.501347
-2.501316
-2.501287
-2.501258
-2.501041
-2.501010
-2.500983
-2.500954
-2.500925
-2.500895
-2.500868
-2.500838
-2.500811
-2.500782
-2.506317
-2.506272
-2.506229
-2.506186
-2.506141
-2.506099
-2.506055
-2.506013
-2.505970
-2.505925
-2.505611
-2.505569
-2.505528
-2.505487
-2.505446
-2.505404
-2.505364
-2.505320
-2.505279
-2.505239
-2.504937
-2.504898
-2.504858
-2.504820
-2.504780
-2.504739
-2.504700
-2.504661
-2.504620
-2.504583
-2.504297
-2.504259
-2.504220
-2.504182
-2.504143
-2.504106
-2.504068
-2.504030
-2.503993
-2.503956
-2.503685
-2.503646
-2.503609
-2.503573
-2.503538
-2.503501
-2.503465
-2.503429
-2.503394
-2.503357
-2.503097
-2.503062
-2.503029
-2.502993
-2.502959
-2.502924
-2.502890
-2.502856
-2.502822
-2.502787
-2.502538
-2.502506
-2.502472
-2.502439
-2.502407
-2.502373
-2.502341
-2.502309
-2.502276
-2.502242
-2.502005
-2.501975
-2.501942
-2.501910
-2.501879
-2.501848
-2.501815
-2.501785
-2.501754
-2.501724
-2.501497
-2.501466
-2.501436
-2.501406
-2.501374
-2.501347
-2.501316
-2.501287
-2.501258