# vtk DataFile Version 3.0
PINN prediction t=17875.861328125
ASCII
DATASET UNSTRUCTURED_GRID
POINTS 1000 float
0.000000 0.000000 0.000000
0.000000 0.000000 0.044444
0.000000 0.000000 0.088889
0.000000 0.000000 0.133333
0.000000 0.000000 0.177778
0.000000 0.000000 0.222222
0.000000 0.000000 0.266667
0.000000 0.000000 0.311111
0.000000 0.000000 0.355556
0.000000 0.000000 0.400000
0.000000 0.088889 0.000000
0.000000 0.088889 0.044444
0.000000 0.088889 0.088889
0.000000 0.088889 0.133333
0.000000 0.088889 0.177778
0.000000 0.088889 0.222222
0.000000 0.088889 0.266667
0.000000 0.088889 0.311111
0.000000 0.088889 0.355556
0.000000 0.088889 0.400000
0.000000 0.177778 0.000000
0.000000 0.177778 0.044444
0.000000 0.177778 0.088889
0.000000 0.177778 0.133333
0.000000 0.177778 0.177778
0.000000 0.177778 0.222222
0.000000 0.177778 0.266667
0.000000 0.177778 0.311111
0.000000 0.177778 0.355556
0.000000 0.177778 0.400000
0.000000 0.266667 0.000000
0.000000 0.266667 0.044444
0.000000 0.266667 0.088889
0.000000 0.266667 0.133333
0.000000 0.266667 0.177778
0.000000 0.266667 0.222222
0.000000 0.266667 0.266667
0.000000 0.266667 0.311111
0.000000 0.266667 0.355556
0.000000 0.266667 0.400000
0.000000 0.355556 0.000000
0.000000 0.355556 0.044444
0.000000 0.355556 0.088889
0.000000 0.355556 0.133333
0.000000 0.355556 0.177778
0.000000 0.355556 0.222222
0.000000 0.355556 0.266667
0.000000 0.355556 0.311111
0.000000 0.355556 0.355556
0.000000 0.355556 0.400000
0.000000 0.444444 0.000000
0.000000 0.444444 0.044444
0.000000 0.444444 0.088889
0.000000 0.444444 0.133333
0.000000 0.444444 0.177778
0.000000 0.444444 0.222222
0.000000 0.444444 0.266667
0.000000 0.444444 0.311111
0.000000 0.444444 0.355556
0.000000 0.444444 0.400000
0.000000 0.533333 0.000000
0.000000 0.533333 0.044444
0.000000 0.533333 0.088889
0.000000 0.533333 0.133333
0.000000 0.533333 0.177778
0.000000 0.533333 0.222222
0.000000 0.533333 0.266667
0.000000 0.533333 0.311111
0.000000 0.533333 0.355556
0.000000 0.533333 0.400000
0.000000 0.622222 0.000000
0.000000 0.622222 0.044444
0.000000 0.622222 0.088889
0.000000 0.622222 0.133333
0.000000 0.622222 0.177778
0.000000 0.622222 0.222222
0.000000 0.622222 0.266667
0.000000 0.622222 0.311111
0.000000 0.622222 0.355556
0.000000 0.622222 0.400000
0.000000 0.711111 0.000000
0.000000 0.711111 0.044444
0.000000 0.711111 0.088889
0.000000 0.711111 0.133333
0.000000 0.711111 0.177778
0.000000 0.711111 0.222222
0.000000 0.711111 0.266667
0.000000 0.711111 0.311111
0.000000 0.711111 0.355556
0.000000 0.711111 0.400000
0.000000 0.800000 0.000000
0.000000 0.800000 0.044444
0.000000 0.800000 0.088889
0.000000 0.800000 0.133333
0.000000 0.800000 0.177778
0.000000 0.800000 0.222222
0.000000 0.800000 0.266667
0.000000 0.800000 0.311111
0.000000 0.800000 0.355556
0.000000 0.800000 0.400000
0.044444 0.000000 0.000000
0.044444 0.000000 0.044444
0.044444 0.000000 0.088889
0.044444 0.000000 0.133333
0.044444 0.000000 0.177778
0.044444 0.000000 0.222222
0.044444 0.000000 0.266667
0.044444 0.000000 0.311111
0.044444 0.000000 0.355556
0.044444 0.000000 0.400000
0.044444 0.088889 0.000000
0.044444 0.088889 0.044444
0.044444 0.088889 0.088889
0.044444 0.088889 0.133333
0.044444 0.088889 0.177778
0.044444 0.088889 0.222222
0.044444 0.088889 0.266667
0.044444 0.088889 0.311111
0.044444 0.088889 0.355556
0.044444 0.088889 0.400000
0.044444 0.177778 0.000000
0.044444 0.177778 0.044444
0.044444 0.177778 0.088889
0.044444 0.177778 0.133333
0.044444 0.177778 0.177778
0.044444 0.177778 0.222222
0.044444 0.177778 0.266667
0.044444 0.177778 0.311111
0.044444 0.177778 0.355556
0.044444 0.177778 0.400000
0.044444 0.266667 0.000000
0.044444 0.266667 0.044444
0.044444 0.266667 0.088889
0.044444 0.266667 0.133333
0.044444 0.266667 0.177778
0.044444 0.266667 0.222222
0.044444 0.266667 0.266667
0.044444 0.266667 0.311111
0.044444 0.266667 0.355556
0.044444 0.266667 0.400000
0.044444 0.355556 0.000000
0.044444 0.355556 0.044444
0.044444 0.355556 0.088889
0.044444 0.355556 0.133333
0.044444 0.355556 0.177778
0.044444 0.355556 0.222222
0.044444 0.355556 0.266667
0.044444 0.355556 0.311111
0.044444 0.355556 0.355556
0.044444 0.355556 0.400000
0.044444 0.444444 0.000000
0.044444 0.444444 0.044444
0.044444 0.444444 0.088889
0.044444 0.444444 0.133333
0.044444 0.444444 0.177778
0.044444 0.444444 0.222222
0.044444 0.444444 0.266667
0.044444 0.444444 0.311111
0.044444 0.444444 0.355556
0.044444 0.444444 0.400000
0.044444 0.533333 0.000000
0.044444 0.533333 0.044444
0.044444 0.533333 0.088889
0.044444 0.533333 0.133333
0.044444 0.533333 0.177778
0.044444 0.533333 0.222222
0.044444 0.533333 0.266667
0.044444 0.533333 0.311111
0.044444 0.533333 0.355556
0.044444 0.533333 0.400000
0.044444 0.622222 0.000000
0.044444 0.622222 0.044444
0.044444 0.622222 0.088889
0.044444 0.622222 0.133333
0.044444 0.622222 0.177778
0.044444 0.622222 0.222222
0.044444 0.622222 0.266667
0.044444 0.622222 0.311111
0.044444 0.622222 0.355556
0.044444 0.622222 0.400000
0.044444 0.711111 0.000000
0.044444 0.711111 0.044444
0.044444 0.711111 0.088889
0.044444 0.711111 0.133333
0.044444 0.711111 0.177778
0.044444 0.711111 0.222222
0.044444 0.711111 0.266667
0.044444 0.711111 0.311111
0.044444 0.711111 0.355556
0.044444 0.711111 0.400000
0.044444 0.800000 0.000000
0.044444 0.800000 0.044444
0.044444 0.800000 0.088889
0.044444 0.800000 0.133333
0.044444 0.800000 0.177778
0.044444 0.800000 0.222222
0.044444 0.800000 0.266667
0.044444 0.800000 0.311111
0.044444 0.800000 0.355556
0.044444 0.800000 0.400000
0.088889 0.000000 0.000000
0.088889 0.000000 0.044444
0.088889 0.000000 0.088889
0.088889 0.000000 0.133333
0.088889 0.000000 0.177778
0.088889 0.000000 0.222222
0.088889 0.000000 0.266667
0.088889 0.000000 0.311111
0.088889 0.000000 0.355556
0.088889 0.000000 0.400000
0.088889 0.088889 0.000000
0.088889 0.088889 0.044444
0.088889 0.088889 0.088889
0.088889 0.088889 0.133333
0.088889 0.088889 0.177778
0.088889 0.088889 0.222222
0.088889 0.088889 0.266667
0.088889 0.088889 0.311111
0.088889 0.088889 0.355556
0.088889 0.088889 0.400000
0.088889 0.177778 0.000000
0.088889 0.177778 0.044444
0.088889 0.177778 0.088889
0.088889 0.177778 0.133333
0.088889 0.177778 0.177778
0.088889 0.177778 0.222222
0.088889 0.177778 0.266667
0.088889 0.177778 0.311111
0.088889 0.177778 0.355556
0.088889 0.177778 0.400000
0.088889 0.266667 0.000000
0.088889 0.266667 0.044444
0.088889 0.266667 0.088889
0.088889 0.266667 0.133333
0.088889 0.266667 0.177778
0.088889 0.266667 0.222222
0.088889 0.266667 0.266667
0.088889 0.266667 0.311111
0.088889 0.266667 0.355556
0.088889 0.266667 0.400000
0.088889 0.355556 0.000000
0.088889 0.355556 0.044444
0.088889 0.355556 0.088889
0.088889 0.355556 0.133333
0.088889 0.355556 0.177778
0.088889 0.355556 0.222222
0.088889 0.355556 0.266667
0.088889 0.355556 0.311111
0.088889 0.355556 0.355556
0.088889 0.355556 0.400000
0.088889 0.444444 0.000000
0.088889 0.444444 0.044444
0.088889 0.444444 0.088889
0.088889 0.444444 0.133333
0.088889 0.444444 0.177778
0.088889 0.444444 0.222222
0.088889 0.444444 0.266667
0.088889 0.444444 0.311111
0.088889 0.444444 0.355556
0.088889 0.444444 0.400000
0.088889 0.533333 0.000000
0.088889 0.533333 0.044444
0.088889 0.533333 0.088889
0.088889 0.533333 0.133333
0.088889 0.533333 0.177778
0.088889 0.533333 0.222222
0.088889 0.533333 0.266667
0.088889 0.533333 0.311111
0.088889 0.533333 0.355556
0.088889 0.533333 0.400000
0.088889 0.622222 0.000000
0.088889 0.622222 0.044444
0.088889 0.622222 0.088889
0.088889 0.622222 0.133333
0.088889 0.622222 0.177778
0.088889 0.622222 0.222222
0.088889 0.622222 0.266667
0.088889 0.622222 0.311111
0.088889 0.622222 0.355556
0.088889 0.622222 0.400000
0.088889 0.711111 0.000000
0.088889 0.711111 0.044444
0.088889 0.711111 0.088889
0.088889 0.711111 0.133333
0.088889 0.711111 0.177778
0.088889 0.711111 0.222222
0.088889 0.711111 0.266667
0.088889 0.711111 0.311111
0.088889 0.711111 0.355556
0.088889 0.711111 0.400000
0.088889 0.800000 0.000000
0.088889 0.800000 0.044444
0.088889 0.800000 0.088889
0.088889 0.800000 0.133333
0.088889 0.800000 0.177778
0.088889 0.800000 0.222222
0.088889 0.800000 0.266667
0.088889 0.800000 0.311111
0.088889 0.800000 0.355556
0.088889 0.800000 0.400000
0.133333 0.000000 0.000000
0.133333 0.000000 0.044444
0.133333 0.000000 0.088889
0.133333 0.000000 0.133333
0.133333 0.000000 0.177778
0.133333 0.000000 0.222222
0.133333 0.000000 0.266667
0.133333 0.000000 0.311111
0.133333 0.000000 0.355556
0.133333 0.000000 0.400000
0.133333 0.088889 0.000000
0.133333 0.088889 0.044444
0.133333 0.088889 0.088889
0.133333 0.088889 0.133333
0.133333 0.088889 0.177778
0.133333 0.088889 0.222222
0.133333 0.088889 0.266667
0.133333 0.088889 0.311111
0.133333 0.088889 0.355556
0.133333 0.088889 0.400000
0.133333 0.177778 0.000000
0.133333 0.177778 0.044444
0.133333 0.177778 0.088889
0.133333 0.177778 0.133333
0.133333 0.177778 0.177778
0.133333 0.177778 0.222222
0.133333 0.177778 0.266667
0.133333 0.177778 0.311111
0.133333 0.177778 0.355556
0.133333 0.177778 0.400000
0.133333 0.266667 0.000000
0.133333 0.266667 0.044444
0.133333 0.266667 0.088889
0.133333 0.266667 0.133333
0.133333 0.266667 0.177778
0.133333 0.266667 0.222222
0.133333 0.266667 0.266667
0.133333 0.266667 0.311111
0.133333 0.266667 0.355556
0.133333 0.266667 0.400000
0.133333 0.355556 0.000000
0.133333 0.355556 0.044444
0.133333 0.355556 0.088889
0.133333 0.355556 0.133333
0.133333 0.355556 0.177778
0.133333 0.355556 0.222222
0.133333 0.355556 0.266667
0.133333 0.355556 0.311111
0.133333 0.355556 0.355556
0.133333 0.355556 0.400000
0.133333 0.444444 0.000000
0.133333 0.444444 0.044444
0.133333 0.444444 0.088889
0.133333 0.444444 0.133333
0.133333 0.444444 0.177778
0.133333 0.444444 0.222222
0.133333 0.444444 0.266667
0.133333 0.444444 0.311111
0.133333 0.444444 0.355556
0.133333 0.444444 0.400000
0.133333 0.533333 0.000000
0.133333 0.533333 0.044444
0.133333 0.533333 0.088889
0.133333 0.533333 0.133333
0.133333 0.533333 0.177778
0.133333 0.533333 0.222222
[...]
POINT_DATA 1000
SCALARS Temperature float 1
LOOKUP_TABLE default
115.465607
115.475128
115.484802
115.494293
115.503998
115.513641
115.523071
115.532654
115.542053
115.551483
115.620667
115.629852
115.639099
115.648346
115.657471
115.666656
115.675812
115.684845
115.693939
115.702942
115.769135
115.778046
115.786774
115.795563
115.804413
115.813141
115.821869
115.830566
115.839294
115.847870
115.911163
115.919708
115.928284
115.936707
115.945007
115.953491
115.961761
115.970093
115.978485
115.986755
116.047302
116.055450
116.063538
116.071594
116.079620
116.087677
116.095673
116.103577
116.111603
116.119476
116.177551
116.185242
116.192902
116.200684
116.208435
116.216034
116.223724
116.231354
116.238983
116.246582
116.302032
116.309479
116.316864
116.324127
116.331512
116.338837
116.346161
116.353363
116.360718
116.368103
116.421082
116.428131
116.435272
116.442352
116.449371
116.456329
116.463379
116.470306
116.477264
116.484253
116.534943
116.541748
116.548523
116.555267
116.562042
116.568695
116.575409
116.582001
116.588654
116.595428
116.643890
116.650421
116.656830
116.663269
116.669739
116.676178
116.682495
116.688934
116.695221
116.701691
115.475250
115.484894
115.494415
115.504150
115.513733
115.523224
115.532623
115.542114
115.551544
115.560944
115.629852
115.639221
115.648376
115.657562
115.666748
115.675873
115.684937
115.693939
115.703033
115.712128
115.778107
115.786957
115.795654
115.804504
115.813232
115.821991
115.830658
115.839355
115.847992
115.856659
115.919861
115.928375
115.936737
115.945099
115.953613
115.961884
115.970276
115.978485
115.986786
115.995087
116.055511
116.063660
116.071655
116.079651
116.087769
116.095734
116.103638
116.111694
116.119537
116.127533
116.185272
116.192963
116.200775
116.208405
116.216217
116.223694
116.231384
116.239136
116.246552
116.254089
116.309570
116.316833
116.324219
116.331604
116.338898
116.346161
116.353455
116.360809
116.368195
116.375305
116.428223
116.435394
116.442413
116.449432
116.456390
116.463470
116.470337
116.477325
116.484314
116.491272
116.541840
116.548615
116.555389
116.562103
116.568817
116.575439
116.582123
116.588776
116.595581
116.602020
116.650452
116.656952
116.663422
116.669800
116.676239
116.682648
116.688965
116.695282
116.701691
116.708069
115.485016
115.494568
115.504242
115.513824
115.523346
115.532837
115.542206
115.551697
115.561066
115.570587
115.639252
115.648438
115.657654
115.666840
115.675873
115.684967
115.694092
115.703094
115.712128
115.721161
115.787018
115.795715
115.804535
115.813293
115.822113
115.830719
115.839417
115.848083
115.856781
115.865417
115.928436
115.936798
115.945251
115.953766
115.961945
115.970337
115.978546
115.986877
115.995148
116.003387
116.063721
116.071777
116.079803
116.087860
116.095764
116.103729
116.111725
116.119629
116.127594
116.135468
116.193115
116.200806
116.208527
116.216217
116.223846
116.231445
116.239166
116.246704
116.254211
116.261688
116.316925
116.324310
116.331665
116.339020
116.346252
116.353485
116.360931
116.368134
116.375397
116.382568
116.435486
116.442505
116.449524
116.456512
116.463593
116.470490
116.477448
116.484375
116.491333
116.498230
116.548645
116.555481
116.562164
116.568878
116.575531
116.582123
116.588867
116.595581
116.602051
116.608795
116.657013
116.663483
116.669922
116.676270
116.682648
116.689056
116.695465
116.701813
116.708160
116.714386
115.494690
115.504303
115.513885
115.523407
115.532928
115.542297
115.551788
115.561279
115.570679
115.579987
115.648499
115.657745
115.666931
115.676117
115.685120
115.694183
115.703156
115.712219
115.721313
115.730194
115.795868
115.804718
115.813416
115.822113
115.830872
115.839447
115.848053
115.856842
115.865509
115.873993
115.936890
115.945343
115.953766
115.962006
115.970367
115.978577
115.986969
115.995239
116.003510
116.011688
116.071808
116.079865
116.087952
116.095917
116.103790
116.111786
116.119690
116.127716
116.135529
116.143433
116.200958
116.208649
116.216278
116.223877
116.231476
116.239197
116.246826
116.254272
116.261810
116.269379
116.324371
116.331757
116.339142
116.346344
116.353607
116.360992
116.368134
116.375549
116.382660
116.389740
116.442596
116.449646
116.456604
116.463684
116.470551
116.477539
116.484467
116.491425
116.498291
116.505096
116.555511
116.562195
116.568909
116.575653
116.582184
116.588959
116.595673
116.602112
116.608826
116.615295
116.663483
116.669983
116.676361
116.682709
116.689148
116.695465
116.701813
116.708160
116.714447
116.720734
115.504333
115.514008
115.523499
115.533051
115.542358
115.551849
115.561310
115.570831
115.580109
115.589447
115.657867
115.667053
115.676178
115.685211
115.694305
115.703339
115.712341
115.721344
115.730286
115.739227
115.804749
115.813507
115.822174
115.830963
115.839569
115.848236
115.856903
115.865570
115.874054
115.882782
115.945435
115.953796
115.962128
115.970428
115.978729
115.987030
115.995361
116.003601
116.011780
116.019958
116.079926
116.088074
116.096008
116.103912
116.111908
116.119812
116.127777
116.135590
116.143463
116.151337
116.208801
116.216370
116.223999
116.231628
116.239288
116.246857
116.254364
116.261871
116.269470
116.276886
116.331818
116.339233
116.346344
116.353760
116.361053
116.368317
116.375610
116.382721
116.389801
116.397186
116.449615
116.456635
116.463745
116.470551
116.477631
116.484528
116.491486
116.498322
116.505157
116.512115
116.562256
116.568970
116.575745
116.582275
116.589020
116.595673
116.602203
116.608917
116.615356
116.622009
116.670013
116.676422
116.682800
116.689240
116.695526
116.701904
116.708252
116.714539
116.720764
116.727112
115.514069
115.523560
115.533051
115.542511
115.551971
115.561401
115.570923
115.580200
115.589569
115.598877
115.667145
115.676270
115.685364
115.694366
115.703461
115.712433
115.721497
115.730408
115.739410
115.748291
115.813599
115.822296
115.831055
115.839630
115.848328
115.857056
115.865692
115.874237
115.882782
115.891327
115.953827
115.962189
115.970612
115.978851
115.987122
115.995422
116.003662
116.011902
116.019989
116.028290
116.088165
116.096069
116.104004
116.112000
116.119904
116.127899
116.135742
116.143585
116.151398
116.159210
116.216522
116.224030
116.231598
116.239319
116.246857
116.254364
116.261932
116.269440
116.277008
116.284576
116.339355
116.346527
116.353790
116.361145
116.368378
116.375610
116.382874
116.389862
116.397308
116.404419
116.456696
116.463715
116.470703
116.477692
116.484528
116.491547
116.498413
116.505341
116.512115
116.518951
116.569122
116.575775
116.582397
116.589020
116.595795
116.602325
116.608978
116.615448
116.622070
116.628662
116.676453
116.682892
116.689270
116.695618
116.701996
116.708313
116.714600
116.720856
116.727142
116.733551
115.523682
115.533173
115.542633
115.552094
115.561462
115.570984
115.580231
115.589661
115.598999
115.608215
115.676361
115.685516
115.694550
115.703522
115.712616
115.721588
115.730560
115.739471
115.748383
115.757294
115.822388
115.831238
115.839691
115.848480
115.857147
115.865814
115.874298
115.882874
115.891510
115.899994
115.962280
115.970612
115.978943
115.987213
115.995514
116.003693
116.011963
116.020050
116.028351
116.036407
116.096100
116.104095
116.112091
116.120026
116.127991
116.135773
116.143616
116.151398
116.159271
116.167084
116.224152
116.231873
116.239410
116.247009
116.254547
116.262054
116.269562
116.277130
116.284668
116.292023
116.346619
116.353882
116.361237
116.368439
116.375671
116.382843
116.389984
116.397308
116.404449
116.411591
116.463806
116.470764
116.477844
116.484650
116.491669
116.498566
116.505371
116.512238
116.519012
116.525818
116.575928
116.582489
116.589142
116.595886
116.602386
116.609070
116.615601
116.622101
116.628723
116.635162
116.682892
116.689301
116.695648
116.701965
116.708344
116.714691
116.720917
116.727234
116.733551
116.739685
115.533264
115.542786
115.552155
115.561554
115.571075
115.580292
115.589813
115.599030
115.608398
115.617615
115.685547
115.694611
115.703583
115.712738
115.721680
115.730621
115.739532
115.748505
115.757446
115.766205
115.831268
115.839874
115.848450
115.857269
115.865936
115.874390
115.883026
115.891541
115.900024
115.908539
115.970703
115.979034
115.987305
115.995544
116.003815
116.012146
116.020111
116.028442
116.036560
116.044617
116.104156
116.112091
116.120026
116.128021
116.135895
116.143646
116.151550
116.159393
116.167206
116.174957
116.231873
116.239532
116.247040
116.254578
116.262146
116.269684
116.277283
116.284698
116.292114
116.299530
116.353912
116.361298
116.368530
116.375702
116.382935
116.390076
116.397400
116.404480
116.411743
116.418732
116.470825
116.477844
116.484711
116.491699
116.498627
116.505432
116.512299
116.519135
116.525879
116.532776
116.582550
116.589203
116.595856
116.602478
116.609161
116.615723
116.622192
116.628754
116.635254
116.641724
116.689484
116.695709
116.702148
116.708405
116.714752
116.720978
116.727325
116.733582
116.739777
116.745972
115.542938
115.552216
115.561676
115.571075
115.580475
115.589874
115.599152
115.608490
115.617737
115.626923
115.694733
115.703613
115.712738
115.721771
115.730743
115.739655
115.748596
115.757599
115.766296
115.775238
115.839966
115.848633
115.857361
115.865936
115.874512
115.883148
115.891571
115.900116
115.908630
115.917053
115.979065
115.987457
115.995667
116.003876
116.012207
116.020264
116.028534
116.036713
116.044739
116.052887
116.112213
116.120056
116.128082
116.136017
116.143829
116.151642
116.159454
116.167297
116.174988
116.182770
116.239655
116.247101
116.254639
116.262268
116.269745
116.277313
116.284790
116.292175
116.299622
116.307098
116.361450
116.368561
116.375793
116.383057
116.390228
116.397491
116.404663
116.411804
116.418884
116.425903
116.477875
116.484833
116.491760
116.498596
116.505493
116.512421
116.519257
116.526031
116.532837
116.539642
116.589264
116.595917
116.602509
116.609222
116.615814
116.622345
116.628754
116.635315
116.641846
116.648346
116.695862
116.702148
116.708466
116.714752
116.721008
116.727386
116.733673
116.739838
116.746094
116.752289
115.552399
115.561798
115.571198
115.580627
115.589935
115.599335
115.608582
115.617859
115.627075
115.636322
115.703766
115.712799
115.721832
115.730835
115.739746
115.748810
115.757599
115.766388
115.775421
115.784210
115.848663
115.857452
115.865997
115.874603
115.883179
115.891663
115.900238
115.908722
115.917206
115.925629
115.987518
115.995819
116.003906
116.012299
116.020416
116.028595
116.036713
116.044830
116.052948
116.061035
116.120270
116.128235
116.135986
116.143982
116.151764
116.159576
116.167389
116.175079
116.182861
116.190643
116.247253
116.254761
116.262299
116.269867
116.277313
116.284943
116.292267
116.299774
116.307190
116.314545
116.368652
116.375854
116.383148
116.390259
116.397461
116.404663
116.411835
116.418915
116.426025
116.433105
116.484894
116.491791
116.498688
116.505646
116.512543
116.519318
116.526062
116.532867
116.539642
116.546478
116.596008
116.602509
116.609222
116.615906
116.622375
116.628876
116.635406
116.641907
116.648407
116.654877
116.702179
116.708588
116.714813
116.721100
116.727509
116.733673
116.739899
116.746155
116.752350
116.758667

SCALARS Alpha float 1
LOOKUP_TABLE default
-2.533600
-2.533480
-2.533364
-2.533245
-2.533127
-2.533010
-2.532892
-2.532775
-2.532660
-2.532542
-2.531693
-2.531579
-2.531466
-2.531352
-2.531239
-2.531127
-2.531013
-2.530903
-2.530792
-2.530681
-2.529866
-2.529758
-2.529650
-2.529541
-2.529433
-2.529326
-2.529218
-2.529112
-2.529004
-2.528897
-2.528119
-2.528015
-2.527912
-2.527807
-2.527704
-2.527602
-2.527500
-2.527396
-2.527295
-2.527193
-2.526447
-2.526349
-2.526249
-2.526149
-2.526052
-2.525953
-2.525855
-2.525756
-2.525659
-2.525561
-2.524848
-2.524754
-2.524658
-2.524563
-2.524471
-2.524375
-2.524281
-2.524188
-2.524095
-2.524001
-2.523320
-2.523228
-2.523139
-2.523046
-2.522957
-2.522867
-2.522778
-2.522687
-2.522598
-2.522509
-2.521856
-2.521770
-2.521684
-2.521596
-2.521510
-2.521424
-2.521338
-2.521252
-2.521167
-2.521081
-2.520458
-2.520376
-2.520291
-2.520210
-2.520127
-2.520045
-2.519964
-2.519880
-2.519799
-2.519717
-2.519122
-2.519042
-2.518962
-2.518883
-2.518803
-2.518726
-2.518647
-2.518568
-2.518490
-2.518413
-2.533480
-2.533361
-2.533243
-2.533126
-2.533009
-2.532891
-2.532774
-2.532658
-2.532541
-2.532425
-2.531578
-2.531464
-2.531352
-2.531238
-2.531125
-2.531014
-2.530901
-2.530791
-2.530679
-2.530568
-2.529757
-2.529649
-2.529541
-2.529432
-2.529324
-2.529217
-2.529110
-2.529003
-2.528897
-2.528790
-2.528013
-2.527911
-2.527805
-2.527703
-2.527601
-2.527498
-2.527394
-2.527293
-2.527191
-2.527090
-2.526348
-2.526248
-2.526149
-2.526052
-2.525951
-2.525853
-2.525755
-2.525658
-2.525559
-2.525463
-2.524753
-2.524659
-2.524563
-2.524468
-2.524374
-2.524281
-2.524185
-2.524093
-2.524000
-2.523906
-2.523227
-2.523138
-2.523045
-2.522955
-2.522865
-2.522776
-2.522685
-2.522597
-2.522508
-2.522418
-2.521769
-2.521682
-2.521595
-2.521509
-2.521422
-2.521338
-2.521252
-2.521167
-2.521080
-2.520995
-2.520374
-2.520290
-2.520209
-2.520126
-2.520044
-2.519963
-2.519879
-2.519798
-2.519717
-2.519633
-2.519041
-2.518961
-2.518882
-2.518803
-2.518725
-2.518646
-2.518567
-2.518489
-2.518411
-2.518334
-2.533361
-2.533243
-2.533125
-2.533008
-2.532890
-2.532773
-2.532657
-2.532540
-2.532424
-2.532309
-2.531463
-2.531351
-2.531236
-2.531124
-2.531012
-2.530900
-2.530789
-2.530678
-2.530566
-2.530457
-2.529647
-2.529539
-2.529430
-2.529323
-2.529215
-2.529109
-2.529001
-2.528895
-2.528790
-2.528683
-2.527909
-2.527805
-2.527703
-2.527599
-2.527497
-2.527394
-2.527291
-2.527191
-2.527089
-2.526987
-2.526246
-2.526147
-2.526050
-2.525950
-2.525852
-2.525755
-2.525657
-2.525558
-2.525461
-2.525365
-2.524656
-2.524561
-2.524467
-2.524371
-2.524279
-2.524186
-2.524092
-2.523998
-2.523905
-2.523814
-2.523136
-2.523046
-2.522953
-2.522866
-2.522774
-2.522685
-2.522596
-2.522507
-2.522417
-2.522328
-2.521681
-2.521595
-2.521508
-2.521422
-2.521337
-2.521250
-2.521165
-2.521079
-2.520995
-2.520909
-2.520290
-2.520208
-2.520124
-2.520043
-2.519960
-2.519878
-2.519795
-2.519717
-2.519634
-2.519554
-2.518961
-2.518881
-2.518802
-2.518723
-2.518646
-2.518567
-2.518489
-2.518411
-2.518333
-2.518257
-2.533242
-2.533123
-2.533006
-2.532889
-2.532771
-2.532656
-2.532539
-2.532424
-2.532309
-2.532193
-2.531349
-2.531237
-2.531123
-2.531011
-2.530899
-2.530789
-2.530677
-2.530564
-2.530456
-2.530345
-2.529538
-2.529429
-2.529322
-2.529214
-2.529108
-2.529001
-2.528893
-2.528789
-2.528682
-2.528577
-2.527805
-2.527701
-2.527598
-2.527495
-2.527393
-2.527292
-2.527189
-2.527086
-2.526987
-2.526886
-2.526147
-2.526049
-2.525949
-2.525851
-2.525753
-2.525655
-2.525558
-2.525460
-2.525364
-2.525267
-2.524561
-2.524466
-2.524372
-2.524277
-2.524185
-2.524091
-2.523999
-2.523904
-2.523813
-2.523720
-2.523045
-2.522954
-2.522863
-2.522774
-2.522684
-2.522595
-2.522507
-2.522416
-2.522328
-2.522240
-2.521594
-2.521506
-2.521420
-2.521336
-2.521250
-2.521164
-2.521079
-2.520993
-2.520910
-2.520825
-2.520208
-2.520124
-2.520042
-2.519960
-2.519877
-2.519796
-2.519714
-2.519634
-2.519553
-2.519472
-2.518881
-2.518802
-2.518722
-2.518645
-2.518566
-2.518487
-2.518410
-2.518332
-2.518255
-2.518178
-2.533122
-2.533005
-2.532889
-2.532770
-2.532655
-2.532538
-2.532422
-2.532307
-2.532192
-2.532077
-2.531236
-2.531122
-2.531009
-2.530899
-2.530787
-2.530676
-2.530564
-2.530454
-2.530344
-2.530234
-2.529428
-2.529321
-2.529214
-2.529107
-2.529000
-2.528893
-2.528789
-2.528682
-2.528576
-2.528471
-2.527700
-2.527597
-2.527494
-2.527392
-2.527290
-2.527188
-2.527086
-2.526985
-2.526885
-2.526784
-2.526047
-2.525949
-2.525851
-2.525753
-2.525654
-2.525557
-2.525460
-2.525363
-2.525265
-2.525170
-2.524465
-2.524371
-2.524277
-2.524182
-2.524091
-2.523998
-2.523903
-2.523811
-2.523719
-2.523627
-2.522953
-2.522862
-2.522773
-2.522682
-2.522593
-2.522505
-2.522415
-2.522327
-2.522238
-2.522150
-2.521506
-2.521420
-2.521334
-2.521248
-2.521165
-2.521077
-2.520993
-2.520909
-2.520824
-2.520740
-2.520123
-2.520042
-2.519959
-2.519876
-2.519795
-2.519714
-2.519632
-2.519552
-2.519471
-2.519391
-2.518801
-2.518723
-2.518643
-2.518566
-2.518487
-2.518409
-2.518332
-2.518253
-2.518178
-2.518101
-2.533004
-2.532887
-2.532770
-2.532654
-2.532538
-2.532421
-2.532306
-2.532191
-2.532075
-2.531960
-2.531121
-2.531009
-2.530897
-2.530785
-2.530674
-2.530563
-2.530453
-2.530342
-2.530233
-2.530123
-2.529319
-2.529212
-2.529107
-2.528998
-2.528892
-2.528786
-2.528680
-2.528575
-2.528469
-2.528365
-2.527596
-2.527493
-2.527391
-2.527290
-2.527186
-2.527086
-2.526986
-2.526883
-2.526783
-2.526683
-2.525948
-2.525849
-2.525751
-2.525653
-2.525556
-2.525459
-2.525362
-2.525265
-2.525169
-2.525072
-2.524370
-2.524276
-2.524181
-2.524090
-2.523995
-2.523902
-2.523810
-2.523718
-2.523626
-2.523534
-2.522863
-2.522773
-2.522683
-2.522593
-2.522505
-2.522415
-2.522326
-2.522237
-2.522150
-2.522062
-2.521419
-2.521333
-2.521247
-2.521163
-2.521076
-2.520992
-2.520907
-2.520823
-2.520739
-2.520655
-2.520041
-2.519958
-2.519875
-2.519794
-2.519713
-2.519631
-2.519551
-2.519469
-2.519390
-2.519310
-2.518723
-2.518643
-2.518564
-2.518486
-2.518408
-2.518331
-2.518252
-2.518176
-2.518099
-2.518022
-2.532886
-2.532770
-2.532653
-2.532536
-2.532420
-2.532306
-2.532188
-2.532074
-2.531958
-2.531845
-2.531007
-2.530896
-2.530785
-2.530673
-2.530562
-2.530452
-2.530340
-2.530231
-2.530122
-2.530012
-2.529211
-2.529105
-2.528998
-2.528892
-2.528786
-2.528679
-2.528574
-2.528467
-2.528363
-2.528259
-2.527492
-2.527389
-2.527289
-2.527186
-2.527085
-2.526984
-2.526881
-2.526782
-2.526681
-2.526581
-2.525848
-2.525750
-2.525653
-2.525554
-2.525457
-2.525361
-2.525263
-2.525168
-2.525071
-2.524976
-2.524275
-2.524181
-2.524089
-2.523994
-2.523902
-2.523809
-2.523716
-2.523623
-2.523534
-2.523440
-2.522770
-2.522682
-2.522591
-2.522504
-2.522414
-2.522326
-2.522237
-2.522148
-2.522060
-2.521973
-2.521332
-2.521247
-2.521163
-2.521076
-2.520991
-2.520907
-2.520823
-2.520737
-2.520654
-2.520570
-2.519957
-2.519874
-2.519794
-2.519713
-2.519631
-2.519549
-2.519469
-2.519388
-2.519309
-2.519228
-2.518641
-2.518564
-2.518486
-2.518408
-2.518329
-2.518252
-2.518175
-2.518099
-2.518022
-2.517945
-2.532769
-2.532652
-2.532535
-2.532419
-2.532304
-2.532187
-2.532074
-2.531958
-2.531843
-2.531729
-2.530895
-2.530784
-2.530672
-2.530560
-2.530450
-2.530340
-2.530230
-2.530120
-2.530012
-2.529902
-2.529104
-2.528997
-2.528890
-2.528785
-2.528679
-2.528572
-2.528467
-2.528362
-2.528256
-2.528154
-2.527388
-2.527288
-2.527184
-2.527084
-2.526982
-2.526881
-2.526781
-2.526681
-2.526580
-2.526481
-2.525749
-2.525652
-2.525554
-2.525457
-2.525360
-2.525263
-2.525167
-2.525071
-2.524975
-2.524879
-2.524180
-2.524087
-2.523993
-2.523901
-2.523808
-2.523715
-2.523623
-2.523532
-2.523439
-2.523348
-2.522679
-2.522591
-2.522502
-2.522412
-2.522325
-2.522236
-2.522147
-2.522060
-2.521973
-2.521885
-2.521245
-2.521161
-2.521075
-2.520991
-2.520905
-2.520822
-2.520737
-2.520654
-2.520569
-2.520485
-2.519874
-2.519793
-2.519712
-2.519630
-2.519549
-2.519468
-2.519388
-2.519308
-2.519228
-2.519147
-2.518563
-2.518485
-2.518407
-2.518329
-2.518251
-2.518175
-2.518098
-2.518022
-2.517945
-2.517868
-2.532650
-2.532534
-2.532417
-2.532302
-2.532187
-2.532072
-2.531957
-2.531842
-2.531729
-2.531614
-2.530782
-2.530671
-2.530559
-2.530448
-2.530339
-2.530229
-2.530120
-2.530010
-2.529900
-2.529792
-2.528995
-2.528889
-2.528784
-2.528678
-2.528572
-2.528465
-2.528361
-2.528255
-2.528153
-2.528047
-2.527287
-2.527184
-2.527084
-2.526982
-2.526881
-2.526779
-2.526679
-2.526578
-2.526479
-2.526379
-2.525651
-2.525553
-2.525455
-2.525359
-2.525261
-2.525166
-2.525070
-2.524974
-2.524879
-2.524782
-2.524086
-2.523994
-2.523900
-2.523807
-2.523714
-2.523622
-2.523532
-2.523439
-2.523348
-2.523257
-2.522591
-2.522502
-2.522412
-2.522323
-2.522234
-2.522147
-2.522060
-2.521971
-2.521884
-2.521797
-2.521161
-2.521074
-2.520990
-2.520904
-2.520821
-2.520735
-2.520651
-2.520567
-2.520484
-2.520401
-2.519792
-2.519710
-2.519628
-2.519548
-2.519468
-2.519387
-2.519307
-2.519227
-2.519147