# vtk DataFile Version 3.0
PINN prediction t=0.0
ASCII
DATASET UNSTRUCTURED_GRID
POINTS 1000 float
0.000000 0.000000 0.000000
0.000000 0.000000 0.044444
0.000000 0.000000 0.088889
0.000000 0.000000 0.133333
0.000000 0.000000 0.177778
0.000000 0.000000 0.222222
0.000000 0.000000 0.266667
0.000000 0.000000 0.311111
0.000000 0.000000 0.355556
0.000000 0.000000 0.400000
0.000000 0.088889 0.000000
0.000000 0.088889 0.044444
0.000000 0.088889 0.088889
0.000000 0.088889 0.133333
0.000000 0.088889 0.177778
0.000000 0.088889 0.222222
0.000000 0.088889 0.266667
0.000000 0.088889 0.311111
0.000000 0.088889 0.355556
0.000000 0.088889 0.400000
0.000000 0.177778 0.000000
0.000000 0.177778 0.044444
0.000000 0.177778 0.088889
0.000000 0.177778 0.133333
0.000000 0.177778 0.177778
0.000000 0.177778 0.222222
0.000000 0.177778 0.266667
0.000000 0.177778 0.311111
0.000000 0.177778 0.355556
0.000000 0.177778 0.400000
0.000000 0.266667 0.000000
0.000000 0.266667 0.044444
0.000000 0.266667 0.088889
0.000000 0.266667 0.133333
0.000000 0.266667 0.177778
0.000000 0.266667 0.222222
0.000000 0.266667 0.266667
0.000000 0.266667 0.311111
0.000000 0.266667 0.355556
0.000000 0.266667 0.400000
0.000000 0.355556 0.000000
0.000000 0.355556 0.044444
0.000000 0.355556 0.088889
0.000000 0.355556 0.133333
0.000000 0.355556 0.177778
0.000000 0.355556 0.222222
0.000000 0.355556 0.266667
0.000000 0.355556 0.311111
0.000000 0.355556 0.355556
0.000000 0.355556 0.400000
0.000000 0.444444 0.000000
0.000000 0.444444 0.044444
0.000000 0.444444 0.088889
0.000000 0.444444 0.133333
0.000000 0.444444 0.177778
0.000000 0.444444 0.222222
0.000000 0.444444 0.266667
0.000000 0.444444 0.311111
0.000000 0.444444 0.355556
0.000000 0.444444 0.400000
0.000000 0.533333 0.000000
0.000000 0.533333 0.044444
0.000000 0.533333 0.088889
0.000000 0.533333 0.133333
0.000000 0.533333 0.177778
0.000000 0.533333 0.222222
0.000000 0.533333 0.266667
0.000000 0.533333 0.311111
0.000000 0.533333 0.355556
0.000000 0.533333 0.400000
0.000000 0.622222 0.000000
0.000000 0.622222 0.044444
0.000000 0.622222 0.088889
0.000000 0.622222 0.133333
0.000000 0.622222 0.177778
0.000000 0.622222 0.222222
0.000000 0.622222 0.266667
0.000000 0.622222 0.311111
0.000000 0.622222 0.355556
0.000000 0.622222 0.400000
0.000000 0.711111 0.000000
0.000000 0.711111 0.044444
0.000000 0.711111 0.088889
0.000000 0.711111 0.133333
0.000000 0.711111 0.177778
0.000000 0.711111 0.222222
0.000000 0.711111 0.266667
0.000000 0.711111 0.311111
0.000000 0.711111 0.355556
0.000000 0.711111 0.400000
0.000000 0.800000 0.000000
0.000000 0.800000 0.044444
0.000000 0.800000 0.088889
0.000000 0.800000 0.133333
0.000000 0.800000 0.177778
0.000000 0.800000 0.222222
0.000000 0.800000 0.266667
0.000000 0.800000 0.311111
0.000000 0.800000 0.355556
0.000000 0.800000 0.400000
0.044444 0.000000 0.000000
0.044444 0.000000 0.044444
0.044444 0.000000 0.088889
0.044444 0.000000 0.133333
0.044444 0.000000 0.177778
0.044444 0.000000 0.222222
0.044444 0.000000 0.266667
0.044444 0.000000 0.311111
0.044444 0.000000 0.355556
0.044444 0.000000 0.400000
0.044444 0.088889 0.000000
0.044444 0.088889 0.044444
0.044444 0.088889 0.088889
0.044444 0.088889 0.133333
0.044444 0.088889 0.177778
0.044444 0.088889 0.222222
0.044444 0.088889 0.266667
0.044444 0.088889 0.311111
0.044444 0.088889 0.355556
0.044444 0.088889 0.400000
0.044444 0.177778 0.000000
0.044444 0.177778 0.044444
0.044444 0.177778 0.088889
0.044444 0.177778 0.133333
0.044444 0.177778 0.177778
0.044444 0.177778 0.222222
0.044444 0.177778 0.266667
0.044444 0.177778 0.311111
0.044444 0.177778 0.355556
0.044444 0.177778 0.400000
0.044444 0.266667 0.000000
0.044444 0.266667 0.044444
0.044444 0.266667 0.088889
0.044444 0.266667 0.133333
0.044444 0.266667 0.177778
0.044444 0.266667 0.222222
0.044444 0.266667 0.266667
0.044444 0.266667 0.311111
0.044444 0.266667 0.355556
0.044444 0.266667 0.400000
0.044444 0.355556 0.000000
0.044444 0.355556 0.044444
0.044444 0.355556 0.088889
0.044444 0.355556 0.133333
0.044444 0.355556 0.177778
0.044444 0.355556 0.222222
0.044444 0.355556 0.266667
0.044444 0.355556 0.311111
0.044444 0.355556 0.355556
0.044444 0.355556 0.400000
0.044444 0.444444 0.000000
0.044444 0.444444 0.044444
0.044444 0.444444 0.088889
0.044444 0.444444 0.133333
0.044444 0.444444 0.177778
0.044444 0.444444 0.222222
0.044444 0.444444 0.266667
0.044444 0.444444 0.311111
0.044444 0.444444 0.355556
0.044444 0.444444 0.400000
0.044444 0.533333 0.000000
0.044444 0.533333 0.044444
0.044444 0.533333 0.088889
0.044444 0.533333 0.133333
0.044444 0.533333 0.177778
0.044444 0.533333 0.222222
0.044444 0.533333 0.266667
0.044444 0.533333 0.311111
0.044444 0.533333 0.355556
0.044444 0.533333 0.400000
0.044444 0.622222 0.000000
0.044444 0.622222 0.044444
0.044444 0.622222 0.088889
0.044444 0.622222 0.133333
0.044444 0.622222 0.177778
0.044444 0.622222 0.222222
0.044444 0.622222 0.266667
0.044444 0.622222 0.311111
0.044444 0.622222 0.355556
0.044444 0.622222 0.400000
0.044444 0.711111 0.000000
0.044444 0.711111 0.044444
0.044444 0.711111 0.088889
0.044444 0.711111 0.133333
0.044444 0.711111 0.177778
0.044444 0.711111 0.222222
0.044444 0.711111 0.266667
0.044444 0.711111 0.311111
0.044444 0.711111 0.355556
0.044444 0.711111 0.400000
0.044444 0.800000 0.000000
0.044444 0.800000 0.044444
0.044444 0.800000 0.088889
0.044444 0.800000 0.133333
0.044444 0.800000 0.177778
0.044444 0.800000 0.222222
0.044444 0.800000 0.266667
0.044444 0.800000 0.311111
0.044444 0.800000 0.355556
0.044444 0.800000 0.400000
0.088889 0.000000 0.000000
0.088889 0.000000 0.044444
0.088889 0.000000 0.088889
0.088889 0.000000 0.133333
0.088889 0.000000 0.177778
0.088889 0.000000 0.222222
0.088889 0.000000 0.266667
0.088889 0.000000 0.311111
0.088889 0.000000 0.355556
0.088889 0.000000 0.400000
0.088889 0.088889 0.000000
0.088889 0.088889 0.044444
0.088889 0.088889 0.088889
0.088889 0.088889 0.133333
0.088889 0.088889 0.177778
0.088889 0.088889 0.222222
0.088889 0.088889 0.266667
0.088889 0.088889 0.311111
0.088889 0.088889 0.355556
0.088889 0.088889 0.400000
0.088889 0.177778 0.000000
0.088889 0.177778 0.044444
0.088889 0.177778 0.088889
0.088889 0.177778 0.133333
0.088889 0.177778 0.177778
0.088889 0.177778 0.222222
0.088889 0.177778 0.266667
0.088889 0.177778 0.311111
0.088889 0.177778 0.355556
0.088889 0.177778 0.400000
0.088889 0.266667 0.000000
0.088889 0.266667 0.044444
0.088889 0.266667 0.088889
0.088889 0.266667 0.133333
0.088889 0.266667 0.177778
0.088889 0.266667 0.222222
0.088889 0.266667 0.266667
0.088889 0.266667 0.311111
0.088889 0.266667 0.355556
0.088889 0.266667 0.400000
0.088889 0.355556 0.000000
0.088889 0.355556 0.044444
0.088889 0.355556 0.088889
0.088889 0.355556 0.133333
0.088889 0.355556 0.177778
0.088889 0.355556 0.222222
0.088889 0.355556 0.266667
0.088889 0.355556 0.311111
0.088889 0.355556 0.355556
0.088889 0.355556 0.400000
0.088889 0.444444 0.000000
0.088889 0.444444 0.044444
0.088889 0.444444 0.088889
0.088889 0.444444 0.133333
0.088889 0.444444 0.177778
0.088889 0.444444 0.222222
0.088889 0.444444 0.266667
0.088889 0.444444 0.311111
0.088889 0.444444 0.355556
0.088889 0.444444 0.400000
0.088889 0.533333 0.000000
0.088889 0.533333 0.044444
0.088889 0.533333 0.088889
0.088889 0.533333 0.133333
0.088889 0.533333 0.177778
0.088889 0.533333 0.222222
0.088889 0.533333 0.266667
0.088889 0.533333 0.311111
0.088889 0.533333 0.355556
0.088889 0.533333 0.400000
0.088889 0.622222 0.000000
0.088889 0.622222 0.044444
0.088889 0.622222 0.088889
0.088889 0.622222 0.133333
0.088889 0.622222 0.177778
0.088889 0.622222 0.222222
0.088889 0.622222 0.266667
0.088889 0.622222 0.311111
0.088889 0.622222 0.355556
0.088889 0.622222 0.400000
0.088889 0.711111 0.000000
0.088889 0.711111 0.044444
0.088889 0.711111 0.088889
0.088889 0.711111 0.133333
0.088889 0.711111 0.177778
0.088889 0.711111 0.222222
0.088889 0.711111 0.266667
0.088889 0.711111 0.311111
0.088889 0.711111 0.355556
0.088889 0.711111 0.400000
0.088889 0.800000 0.000000
0.088889 0.800000 0.044444
0.088889 0.800000 0.088889
0.088889 0.800000 0.133333
0.088889 0.800000 0.177778
0.088889 0.800000 0.222222
0.088889 0.800000 0.266667
0.088889 0.800000 0.311111
0.088889 0.800000 0.355556
0.088889 0.800000 0.400000
0.133333 0.000000 0.000000
0.133333 0.000000 0.044444
0.133333 0.000000 0.088889
0.133333 0.000000 0.133333
0.133333 0.000000 0.177778
0.133333 0.000000 0.222222
0.133333 0.000000 0.266667
0.133333 0.000000 0.311111
0.133333 0.000000 0.355556
0.133333 0.000000 0.400000
0.133333 0.088889 0.000000
0.133333 0.088889 0.044444
0.133333 0.088889 0.088889
0.133333 0.088889 0.133333
0.133333 0.088889 0.177778
0.133333 0.088889 0.222222
0.133333 0.088889 0.266667
0.133333 0.088889 0.311111
0.133333 0.088889 0.355556
0.133333 0.088889 0.400000
0.133333 0.177778 0.000000
0.133333 0.177778 0.044444
0.133333 0.177778 0.088889
0.133333 0.177778 0.133333
0.133333 0.177778 0.177778
0.133333 0.177778 0.222222
0.133333 0.177778 0.266667
0.133333 0.177778 0.311111
0.133333 0.177778 0.355556
0.133333 0.177778 0.400000
0.133333 0.266667 0.000000
0.133333 0.266667 0.044444
0.133333 0.266667 0.088889
0.133333 0.266667 0.133333
0.133333 0.266667 0.177778
0.133333 0.266667 0.222222
0.133333 0.266667 0.266667
0.133333 0.266667 0.311111
0.133333 0.266667 0.355556
0.133333 0.266667 0.400000
0.133333 0.355556 0.000000
0.133333 0.355556 0.044444
0.133333 0.355556 0.088889
0.133333 0.355556 0.133333
0.133333 0.355556 0.177778
0.133333 0.355556 0.222222
0.133333 0.355556 0.266667
0.133333 0.355556 0.311111
0.133333 0.355556 0.355556
0.133333 0.355556 0.400000
0.133333 0.444444 0.000000
0.133333 0.444444 0.044444
0.133333 0.444444 0.088889
0.133333 0.444444 0.133333
0.133333 0.444444 0.177778
0.133333 0.444444 0.222222
0.133333 0.444444 0.266667
0.133333 0.444444 0.311111
0.133333 0.444444 0.355556
0.133333 0.444444 0.400000
0.133333 0.533333 0.000000
0.133333 0.533333 0.044444
0.133333 0.533333 0.088889
0.133333 0.533333 0.133333
0.133333 0.533333 0.177778
0.133333 0.533333 0.222222
[...]
POINT_DATA 1000
SCALARS Temperature float 1
LOOKUP_TABLE default
21.475250
22.595642
23.715881
24.835754
25.955048
27.073608
28.191254
29.307709
30.422882
31.536530
23.727081
24.847260
25.967346
27.087128
28.206482
29.325134
30.442932
31.559692
32.675201
33.789276
25.975861
27.095459
28.215027
29.334381
30.453400
31.571777
32.689423
33.806061
34.921570
36.035706
28.219055
29.337677
30.456390
31.574982
32.693268
33.811035
34.928131
36.044312
37.159424
38.273285
30.454163
31.571503
32.688995
33.806427
34.923645
36.040436
37.156586
38.271942
39.386353
40.499542
32.678772
33.794464
34.910370
36.026306
37.142090
38.257507
39.372406
40.486603
41.599884
42.712036
34.890503
36.004181
37.118164
38.232239
39.346252
40.459991
41.573242
42.685883
43.797699
44.908447
37.087067
38.198425
39.310120
40.421997
41.533875
42.645569
43.756836
44.867554
45.977539
47.086548
39.266327
40.374969
41.484070
42.593445
43.702820
44.812103
45.921082
47.029510
48.137299
49.244202
41.426086
42.531799
43.637970
44.744476
45.851074
46.957581
48.063873
49.169739
50.274994
51.379425
20.948853
22.069183
23.189484
24.309509
25.429077
26.548035
27.666138
28.783203
29.899048
31.013519
23.200531
24.320404
25.440308
26.560028
27.679413
28.798218
29.916260
31.033386
32.149353
33.264008
25.449188
26.568268
27.687439
28.806488
29.925293
31.043610
32.161255
33.278015
34.393768
35.508240
27.692352
28.810242
29.928314
31.046356
32.164215
33.281647
34.398529
35.514618
36.629761
37.743713
29.927521
31.043854
32.160461
33.277130
34.393677
35.509918
36.625671
37.740692
38.854858
39.967957
32.152222
33.266693
34.381470
35.496429
36.611328
37.725983
38.840210
39.953827
41.066681
42.178497
34.364136
35.476379
36.589020
37.701874
38.814758
39.927490
41.039886
42.151733
43.262848
44.373108
36.560974
37.670654
38.780792
39.891235
41.001770
42.112213
43.222412
44.332123
45.441193
46.549438
38.740540
39.847321
40.954681
42.062347
43.170197
44.278015
45.385651
46.492859
47.599518
48.705444
40.900787
42.004395
43.108582
44.213165
45.317993
46.422882
47.527588
48.632019
49.735931
50.839142
20.422668
21.542755
22.662872
23.782867
24.902527
26.021637
27.140015
28.257477
29.373840
30.488892
22.674011
23.793396
24.912933
26.032379
27.151581
28.270325
29.388428
30.505707
31.621979
32.737000
24.922424
26.040771
27.159332
28.277893
29.396271
30.514313
31.631775
32.748505
33.864288
34.978912
27.165405
28.282318
29.399567
30.516876
31.634094
32.751038
33.867493
34.983307
36.098236
37.212158
29.400452
30.515594
31.631134
32.746857
33.862549
34.978058
36.093140
37.207672
38.321411
39.434204
31.625122
32.738190
33.851685
34.965424
36.079224
37.192932
38.306305
39.419189
40.531372
41.642700
33.837067
34.947693
36.058777
37.170227
38.281830
39.393341
40.504639
41.615540
42.725800
43.835266
36.034027
37.141846
38.250275
39.359039
40.468048
41.577087
42.685944
43.794495
44.902466
46.009766
38.213806
39.318542
40.423920
41.529694
42.635834
43.742004
44.848083
45.953918
47.059296
48.164001
40.374359
41.475677
42.577698
43.680206
44.783051
45.886078
46.989044
48.091827
49.194244
50.296051
19.896942
21.016571
22.136353
23.256104
24.375610
25.494720
26.613190
27.730835
28.847504
29.962982
22.147827
23.266541
24.385468
25.504456
26.623291
27.741791
28.859741
29.976990
31.093323
32.208527
24.395844
25.513275
26.630981
27.748871
28.866669
29.984192
31.101288
32.217743
33.333374
34.447968
26.638489
27.754272
28.870422
29.986816
31.103210
32.219452
33.335297
34.450623
35.565186
36.678802
28.873260
29.987030
31.101288
32.215851
33.330505
34.445038
35.559326
36.673126
37.786255
38.898529
31.097748
32.209198
33.321198
34.433563
35.546082
36.658630
37.770935
38.882874
39.994232
41.104797
33.309601
34.418365
35.527771
36.637604
37.747681
38.857819
39.967834
41.077545
42.186768
43.295288
35.506561
36.612305
37.718781
38.825745
39.933014
41.040405
42.147797
43.254944
44.361633
45.467743
37.686401
38.788849
39.892059
40.995819
42.099976
43.204315
44.308685
45.412933
46.516785
47.620117
39.847076
40.945923
42.045563
43.145813
44.246552
45.347504
46.448547
47.549500
48.650177
49.750397
19.371948
20.490936
21.610168
22.729492
23.848663
24.967560
26.085907
27.203583
28.320343
29.436005
21.622223
22.740051
23.858215
24.976532
26.094788
27.212860
28.330475
29.447479
30.563660
31.678864
23.869690
24.985992
26.102722
27.219696
28.336700
29.453552
30.570068
31.686066
32.801331
33.915680
26.111847
27.226288
28.341217
29.456482
30.571838
31.687164
32.802216
33.916840
35.030823
36.143982
28.346222
29.458435
30.571228
31.684418
32.797821
33.911224
35.024475
36.137360
37.249664
38.361267
30.570374
31.680023
32.790314
33.901123
35.012177
36.123322
37.234375
38.345184
39.455505
40.565186
32.781982
33.888733
34.996216
36.104248
37.212616
38.321167
39.429718
40.538055
41.645996
42.753387
34.978760
36.082275
37.186615
38.291534
39.396912
40.502533
41.608185
42.713745
43.818970
44.923737
37.158539
38.258514
39.359375
40.460907
41.562927
42.665253
43.767731
44.870148
45.972321
47.074097
39.319244
40.415436
41.512512
42.610291
43.708679
44.807373
45.906311
47.005249
48.104034
49.202484
18.848022
19.966125
21.084625
22.203308
23.321960
24.440430
25.558472
26.675934
27.792603
28.908295
21.097504
22.214233
23.331421
24.448883
25.566406
26.683777
27.800873
28.917450
30.033325
31.148285
23.344269
24.459259
25.574768
26.690643
27.806671
28.922638
30.038391
31.153717
32.268433
33.382385
25.585785
26.698669
27.812195
28.926117
30.040253
31.154480
32.268555
33.382263
34.495483
35.607971
27.819580
28.930054
30.041168
31.152802
32.264771
33.376831
34.488861
35.600616
36.711945
37.822662
30.043274
31.150940
32.259369
33.368347
34.477753
35.587341
36.696960
37.806427
38.915527
40.024078
32.254456
33.359009
34.464386
35.570404
36.676910
37.783661
38.890533
39.997345
41.103851
42.209930
34.450928
35.552032
36.654053
37.756775
38.860016
39.963623
41.067413
42.171204
43.274750
44.377991
36.630493
37.727844
38.826172
39.925262
41.024963
42.125092
43.225433
44.325867
45.426178
46.526184
38.791107
39.884430
40.978760
42.073914
43.169739
44.266052
45.362671
46.459412
47.556122
48.652588
18.325348
19.442413
20.559967
21.677826
22.795746
23.913574
25.031128
26.148193
27.264557
28.380066
20.573914
21.689392
22.805389
23.921783
25.038330
26.154907
27.271240
28.387177
29.502533
30.617096
22.819824
23.933289
25.047424
26.162018
27.276855
28.391754
29.506531
30.621002
31.734985
32.848267
25.060577
26.171722
27.283600
28.395996
29.508759
30.621643
31.734528
32.847168
33.959412
35.071014
27.293640
28.402130
29.511414
30.621307
31.731628
32.842163
33.952789
35.063232
36.173370
37.282990
29.516693
30.622192
31.728516
32.835541
33.943085
35.050934
36.158905
37.266846
38.374542
39.481781
31.727356
32.829498
33.932587
35.036407
36.140839
37.245636
38.350647
39.455688
40.560547
41.665100
33.923340
35.021851
36.121338
37.221649
38.322601
39.424042
40.525726
41.627533
42.729279
43.830750
36.102570
37.197083
38.292694
39.389160
40.486359
41.584045
42.682129
43.780365
44.878601
45.976654
38.262939
39.353210
40.444580
41.536926
42.630035
43.723724
44.817841
45.912201
47.006622
48.100922
17.804230
18.920074
20.036499
21.153320
22.270325
23.387329
24.504181
25.620636
26.736511
27.851624
20.051758
21.165741
22.280396
23.395508
24.510925
25.626434
26.741821
27.856964
28.971588
30.085541
22.296631
23.408417
24.520966
25.634033
26.747498
27.861145
28.974762
30.088165
31.201202
32.313660
24.536438
25.645691
26.755737
27.866425
28.977570
30.088989
31.200470
32.311829
33.422882
34.533478
26.768677
27.875031
28.982239
30.090210
31.198700
32.307526
33.416504
34.525482
35.634216
36.742554
28.990936
30.094055
31.198120
32.302979
33.408478
34.514374
35.620514
36.726746
37.832794
38.938568
31.200867
32.300446
33.401031
34.502502
35.604614
36.707275
37.810242
38.913330
40.016388
41.119232
33.396271
34.491943
35.588745
36.686462
37.784943
38.884003
39.983459
41.083099
42.182770
43.282318
35.574982
36.666473
37.759155
38.852844
39.947327
41.042480
42.138062
43.233948
44.329926
45.425873
37.734924
38.821960
39.910248
40.999603
42.089813
43.180695
44.272125
45.363922
46.455902
47.547852
17.284973
18.399353
19.514465
20.630035
21.745941
22.861938
23.977875
25.093536
26.208740
27.323273
19.531250
20.643585
21.756683
22.870331
23.984406
25.098663
26.212952
27.327057
28.440765
29.553925
21.774994
22.884888
23.995636
25.107056
26.218933
27.331085
28.443359
29.555542
30.667419
31.778839
24.013702
25.120819
26.228882
27.337646
28.447021
29.556732
30.666626
31.776520
32.886230
33.995544
26.244904
27.348907
28.453918
29.559753
30.666229
31.773132
32.880310
33.987579
35.094757
36.201630
28.466217
29.566772
30.668427
31.770935
32.874176
33.977966
35.082092
36.186371
37.290649
38.394714
30.675323
31.772095
32.870056
33.968933
35.068604
36.168915
37.269623
38.370605
39.471649
40.572571
32.869965
33.962646
35.056580
36.151520
37.247314
38.343842
39.440796
40.538116
41.635590
42.733002
35.047974
36.136292
37.225922
38.316589
39.408203
40.500580
41.593506
42.686859
43.780396
44.873993
37.207367
38.291046
39.376038
40.462189
41.549286
42.637238
43.725800
44.814819
45.904144
46.993591
16.767792
17.880554
18.994110
20.108276
21.222870
22.337677
23.452515
24.567169
25.681488
26.795258
19.012695
20.123169
21.234497
22.346527
23.459076
24.571899
25.684845
26.797729
27.910339
29.022491
21.255127
22.362946
23.471710
24.581238
25.691376
26.801880
27.912598
29.023315
30.133881
31.244080
23.492584
24.597412
25.703247
26.809967
27.917297
29.025146
30.133270
31.241516
32.349670
33.457550
25.722626
26.824097
27.926697
29.030212
30.134460
31.239288
32.344482
33.449860
34.555237
35.660461
27.942841
29.040649
30.139679
31.239655
32.340485
33.441925
34.543854
35.646027
36.748291
37.850525
30.150940
31.244781
32.339844
33.436005
34.533051
35.630798
36.729095
37.827728
38.926605
40.025421
32.344666
33.434174
34.525055
35.617035
36.709991
37.803741
38.898102
39.992889
41.087921
42.183044
34.521851
35.606812
36.693146
37.780701
38.869232
39.958649
41.048737
42.139343
43.230286
44.321350
36.680542
37.760651
38.842194
39.924957
41.008820
42.093597
43.179108
44.265198
45.351715
46.438416

SCALARS Alpha float 1
LOOKUP_TABLE default
0.150165
0.182053
0.213932
0.245796
0.277638
0.309453
0.341233
0.372974
0.404668
0.436309
0.441548
0.473405
0.505226
0.537004
0.568733
0.600406
0.632019
0.663564
0.695036
0.726429
0.732566
0.764373
0.796116
0.827788
0.859384
0.890898
0.922324
0.953656
0.984888
1.016015
1.022889
1.054626
1.086271
1.117820
1.149264
1.180600
1.211822
1.242923
1.273898
1.304742
1.312189
1.343837
1.375367
1.406772
1.438048
1.469189
1.500188
1.531042
1.561744
1.592289
1.600148
1.631688
1.663083
1.694328
1.725418
1.756346
1.787107
1.817698
1.848112
1.878345
1.886454
1.917868
1.949110
1.980178
2.011064
2.041764
2.072272
2.102585
2.132697
2.162604
2.170805
2.202075
2.233148
2.264021
2.294688
2.325145
2.355386
2.385407
2.415205
2.444773
2.452913
2.484021
2.514908
2.545572
2.576005
2.606204
2.636164
2.665882
2.695352
2.724571
2.732502
2.763431
2.794117
2.824555
2.854740
2.884668
2.914336
2.943738
2.972871
3.001731
0.294391
0.326272
0.358124
0.389943
0.421720
0.453451
0.485130
0.516749
0.548304
0.579788
0.585734
0.617581
0.649372
0.681102
0.712764
0.744352
0.775860
0.807282
0.838612
0.869845
0.876670
0.908464
0.940175
0.971797
1.003323
1.034749
1.066068
1.097274
1.128363
1.159327
1.166869
1.198590
1.230202
1.261696
1.293070
1.324315
1.355427
1.386400
1.417230
1.447909
1.456004
1.487634
1.519127
1.550477
1.581679
1.612726
1.643615
1.674339
1.704893
1.735272
1.743757
1.775277
1.806633
1.837820
1.868833
1.899666
1.930315
1.960774
1.991039
2.021104
2.029818
2.061208
2.092410
2.123417
2.154225
2.184828
2.215222
2.245401
2.275362
2.305099
2.313884
2.345128
2.376158
2.406968
2.437555
2.467914
2.498038
2.527925
2.557570
2.586968
2.595669
2.626749
2.657590
2.688189
2.718540
2.748639
2.778481
2.808062
2.837379
2.866428
2.874897
2.905796
2.936434
2.966806
2.996907
3.026733
3.056281
3.085546
3.114524
3.143214
0.438556
0.470437
0.502270
0.534050
0.565771
0.597426
0.629009
0.660516
0.691938
0.723272
0.729823
0.761667
0.793437
0.825126
0.856728
0.888237
0.919648
0.950955
0.982151
1.013232
1.020641
1.052430
1.084116
1.115695
1.147159
1.178504
1.209724
1.240813
1.271765
1.302575
1.310681
1.342395
1.373979
1.405428
1.436737
1.467900
1.498910
1.529764
1.560455
1.590979
1.599617
1.631236
1.662700
1.694001
1.725137
1.756099
1.786885
1.817487
1.847901
1.878123
1.887130
1.918637
1.949961
1.981098
2.012042
2.042789
2.073332
2.103667
2.133790
2.163697
2.172911
2.204286
2.235454
2.266408
2.297145
2.327660
2.357947
2.388001
2.417819
2.447397
2.456660
2.487886
2.518879
2.549635
2.580150
2.610417
2.640434
2.670194
2.699694
2.728930
2.738090
2.769149
2.799952
2.830495
2.860771
2.890778
2.920510
2.949964
2.979136
3.008021
3.016927
3.047803
3.078400
3.108713
3.138739
3.168471
3.197907
3.227043
3.255876
3.284401
0.582605
0.614493
0.646314
0.678063
0.709734
0.741321
0.772817
0.804218
0.835516
0.866707
0.873760
0.905609
0.937364
0.969019
1.000570
1.032008
1.063330
1.094528
1.125598
1.156534
1.164425
1.196216
1.227885
1.259428
1.290838
1.322110
1.353238
1.384217
1.415041
1.445705
1.454271
1.485984
1.517549
1.548960
1.580212
1.611299
1.642217
1.672958
1.703520
1.733895
1.742973
1.774589
1.806030
1.837292
1.868368
1.899254
1.929943
1.960432
1.990715
2.020787
2.030212
2.061713
2.093013
2.124107
2.154991
2.185658
2.216104
2.246324
2.276314
2.306069
2.315681
2.347048
2.378189
2.409099
2.439773
2.470206
2.500394
2.530332
2.560015
2.589441
2.599080
2.630295
2.661260
2.691969
2.722419
2.752604
2.782519
2.812162
2.841526
2.870610
2.880124
2.911170
2.941942
2.972435
3.002645
3.032568
3.062198
3.091532
3.120567
3.149299
3.158539
3.189399
3.219964
3.250226
3.280183
3.309829
3.339162
3.368178
3.396873
3.425244
0.726483
0.758385
0.790201
0.821927
0.853556
0.885082
0.916499
0.947801
0.978983
1.010039
1.017490
1.049351
1.081099
1.112728
1.144234
1.175609
1.206849
1.237948
1.268899
1.299699
1.307967
1.339766
1.371426
1.402941
1.434304
1.465511
1.496555
1.527432
1.558136
1.588661
1.597584
1.629303
1.660856
1.692237
1.723440
1.754460
1.785291
1.815929
1.846369
1.876604
1.886017
1.917637
1.949064
1.980293
2.011318
2.042134
2.072736
2.103119
2.133278
2.163209
2.172950
2.204451
2.235734
2.266794
2.297625
2.328221
2.358577
2.388691
2.418556
2.448168
2.458073
2.489439
2.520561
2.551434
2.582053
2.612413
2.642510
2.672340
2.701898
2.731178
2.741091
2.772302
2.803246
2.833916
2.864309
2.894418
2.924242
2.953774
2.983012
3.011951
3.021718
3.052758
3.083506
3.113958
3.144110
3.173956
3.203493
3.232716
3.261623
3.290209
3.299682
3.330534
3.361073
3.391292
3.421188
3.450757
3.479995
3.508898
3.537464
3.565690
0.870134
0.902057
0.933877
0.965586
0.997180
1.028653
1.059998
1.091210
1.122284
1.153213
1.160959
1.192838
1.224586
1.256197
1.287666
1.318986
1.350152
1.381158
1.411999
1.442670
1.451212
1.483027
1.514685
1.546179
1.577504
1.608653
1.639621
1.670404
1.700995
1.731391
1.740565
1.772298
1.803847
1.835205
1.866366
1.897327
1.928081
1.958623
1.988948
2.019052
2.028696
2.060327
2.091748
2.122952
2.153933
2.184688
2.215211
2.245496
2.275541
2.305338
2.315289
2.346799
2.378073
2.409105
2.439890
2.470423
2.500699
2.530714
2.560462
2.589941
2.600036
2.631407
2.662518
2.693361
2.723933
2.754229
2.784243
2.813972
2.843411
2.872559
2.882640
2.913856
2.944786
2.975424
3.005767
3.035811
3.065550
3.094981
3.124100
3.152904
3.162820
3.193861
3.224595
3.255013
3.285113
3.314891
3.344342
3.373463
3.402251
3.430701
3.440304
3.471156
3.501676
3.531860
3.561703
3.591202
3.620354
3.649154
3.677599
3.705688
1.013504
1.045456
1.077285
1.108986
1.140553
1.171981
1.203262
1.234392
1.265364
1.296175
1.304111
1.336016
1.367772
1.399372
1.430812
1.462084
1.493184
1.524106
1.554845
1.585395
1.594106
1.625945
1.657608
1.689089
1.720382
1.751481
1.782382
1.813078
1.843566
1.873839
1.883162
1.914916
1.946467
1.977810
2.008938
2.039847
2.070531
2.100985
2.131206
2.161186
2.170958
2.202607
2.234028
2.265214
2.296160
2.326862
2.357313
2.387510
2.417447
2.447120
2.457177
2.488703
2.519976
2.550988
2.581736
2.612213
2.642416
2.672340
2.701981
2.731333
2.741516
2.772901
2.804007
2.834829
2.865360
2.895599
2.925539
2.955177
2.984508
3.013528
3.023677
3.054904
3.085826
3.116441
3.146744
3.176728
3.206392
3.235730
3.264739
3.293416
3.303380
3.334430
3.365155
3.395547
3.425604
3.455322
3.484696
3.513723
3.542399
3.570722
3.580356
3.611214
3.641723
3.671879
3.701678
3.731116
3.760188
3.788894
3.817228
3.845188
1.156539
1.188527
1.220373
1.252073
1.283621
1.315010
1.346235
1.377290
1.408170
1.438871
1.446894
1.478832
1.510603
1.542199
1.573617
1.604849
1.635891
1.666737
1.697381
1.727819
1.736596
1.768466
1.800142
1.831617
1.862885
1.893943
1.924783
1.955402
1.985794
2.015954
2.025322
2.057104
2.088665
2.119999
2.151102
2.181967
2.212589
2.242964
2.273087
2.302953
2.312749
2.344424
2.375852
2.407028
2.437946
2.468602
2.498990
2.529105
2.558944
2.588502
2.598564
2.630113
2.661391
2.692390
2.723108
2.753538
2.783676
2.813518
2.843059
2.872295
2.882462
2.913868
2.944977
2.975784
3.006285
3.036474
3.066348
3.095902
3.125132
3.154035
3.164151
3.195395
3.226319
3.256917
3.287186
3.317120
3.346716
3.375970
3.404877
3.433436
3.443348
3.474414
3.505136
3.535511
3.565533
3.595199
3.624504
3.653445
3.682019
3.710224
3.719788
3.750659
3.781165
3.811300
3.841062
3.870446
3.899450
3.928069
3.956300
3.984140
1.299186
1.331216
1.363087
1.394794
1.426329
1.457687
1.488864
1.519853
1.550648
1.581246
1.589254
1.621232
1.653025
1.684625
1.716028
1.747228
1.778220
1.808997
1.839556
1.869890
1.878631
1.910538
1.942232
1.973709
2.004961
2.035985
2.066773
2.097322
2.127626
2.157681
2.166992
2.198809
2.230387
2.261720
2.292804
2.323633
2.354202
2.384505
2.414539
2.444300
2.454018
2.485725
2.517168
2.548341
2.579239
2.609857
2.640189
2.670232
2.699981
2.729433
2.739397
2.770976
2.802266
2.833261
2.863956
2.894346
2.924428
2.954195
2.983646
3.012775
3.022825
3.054258
3.085378
3.116178
3.146654
3.176802
3.206618
3.236097
3.265236
3.294030
3.304011
3.335280
3.366212
3.396801
3.427044
3.456935
3.486472
3.515650
3.544464
3.572915
3.582675
3.613764
3.644492
3.674855
3.704849
3.734471
3.763716
3.792580
3.821061
3.849156
3.858552
3.889442
3.919952
3.950075
3.979808
4.009147
4.038088
4.066628
4.094766
4.122498
1.441393
1.473472
1.505375
1.537094
1.568624
1.599960
1.631095
1.662025
1.692745
1.723248
1.731140
1.763164
1.794985
1.826597
1.857993
1.889168
1.920117
1.950834
1.981315
2.011554
2.020156
2.052108
2.083829
2.115314
2.146558
2.177554
2.208298
2.238785
2.269010
2.298969
2.308121
2.339979
2.371581
2.402922
2.433995
2.464795
2.495317
2.525558
2.555512
2.585175
2.594715
2.626461
2.657926
2.689103
2.719988
2.750575
2.780861
2.810839
2.840507
2.869860
2.879626
2.911242
2.942552
2.973549
3.004229
3.034588
3.064620
3.094323
3.123690
3.152720
3.162555
3.194022
3.225158
3.255959
3.286419
3.316534
3.346300
3.375712
3.404768
3.433462
3.443209
3.474510
3.505457
3.536045
3.566269
3.596126
3.625611
3.654721
3.683452
3.711802
3.721313
3.752430
3.783171
3.813530
3.843505
3.873091
3.902283
3.931079
3.959476
3.987470
3.996601
4.027518
4.058038
4.088156
4.117867
4.147168
4.176055
4.204527
4.232579
4.260210
