# vtk DataFile Version 3.0
PINN prediction t=8937.9306640625
ASCII
DATASET UNSTRUCTURED_GRID
POINTS 1000 float
0.000000 0.000000 0.000000
0.000000 0.000000 0.044444
0.000000 0.000000 0.088889
0.000000 0.000000 0.133333
0.000000 0.000000 0.177778
0.000000 0.000000 0.222222
0.000000 0.000000 0.266667
0.000000 0.000000 0.311111
0.000000 0.000000 0.355556
0.000000 0.000000 0.400000
0.000000 0.088889 0.000000
0.000000 0.088889 0.044444
0.000000 0.088889 0.088889
0.000000 0.088889 0.133333
0.000000 0.088889 0.177778
0.000000 0.088889 0.222222
0.000000 0.088889 0.266667
0.000000 0.088889 0.311111
0.000000 0.088889 0.355556
0.000000 0.088889 0.400000
0.000000 0.177778 0.000000
0.000000 0.177778 0.044444
0.000000 0.177778 0.088889
0.000000 0.177778 0.133333
0.000000 0.177778 0.177778
0.000000 0.177778 0.222222
0.000000 0.177778 0.266667
0.000000 0.177778 0.311111
0.000000 0.177778 0.355556
0.000000 0.177778 0.400000
0.000000 0.266667 0.000000
0.000000 0.266667 0.044444
0.000000 0.266667 0.088889
0.000000 0.266667 0.133333
0.000000 0.266667 0.177778
0.000000 0.266667 0.222222
0.000000 0.266667 0.266667
0.000000 0.266667 0.311111
0.000000 0.266667 0.355556
0.000000 0.266667 0.400000
0.000000 0.355556 0.000000
0.000000 0.355556 0.044444
0.000000 0.355556 0.088889
0.000000 0.355556 0.133333
0.000000 0.355556 0.177778
0.000000 0.355556 0.222222
0.000000 0.355556 0.266667
0.000000 0.355556 0.311111
0.000000 0.355556 0.355556
0.000000 0.355556 0.400000
0.000000 0.444444 0.000000
0.000000 0.444444 0.044444
0.000000 0.444444 0.088889
0.000000 0.444444 0.133333
0.000000 0.444444 0.177778
0.000000 0.444444 0.222222
0.000000 0.444444 0.266667
0.000000 0.444444 0.311111
0.000000 0.444444 0.355556
0.000000 0.444444 0.400000
0.000000 0.533333 0.000000
0.000000 0.533333 0.044444
0.000000 0.533333 0.088889
0.000000 0.533333 0.133333
0.000000 0.533333 0.177778
0.000000 0.533333 0.222222
0.000000 0.533333 0.266667
0.000000 0.533333 0.311111
0.000000 0.533333 0.355556
0.000000 0.533333 0.400000
0.000000 0.622222 0.000000
0.000000 0.622222 0.044444
0.000000 0.622222 0.088889
0.000000 0.622222 0.133333
0.000000 0.622222 0.177778
0.000000 0.622222 0.222222
0.000000 0.622222 0.266667
0.000000 0.622222 0.311111
0.000000 0.622222 0.355556
0.000000 0.622222 0.400000
0.000000 0.711111 0.000000
0.000000 0.711111 0.044444
0.000000 0.711111 0.088889
0.000000 0.711111 0.133333
0.000000 0.711111 0.177778
0.000000 0.711111 0.222222
0.000000 0.711111 0.266667
0.000000 0.711111 0.311111
0.000000 0.711111 0.355556
0.000000 0.711111 0.400000
0.000000 0.800000 0.000000
0.000000 0.800000 0.044444
0.000000 0.800000 0.088889
0.000000 0.800000 0.133333
0.000000 0.800000 0.177778
0.000000 0.800000 0.222222
0.000000 0.800000 0.266667
0.000000 0.800000 0.311111
0.000000 0.800000 0.355556
0.000000 0.800000 0.400000
0.044444 0.000000 0.000000
0.044444 0.000000 0.044444
0.044444 0.000000 0.088889
0.044444 0.000000 0.133333
0.044444 0.000000 0.177778
0.044444 0.000000 0.222222
0.044444 0.000000 0.266667
0.044444 0.000000 0.311111
0.044444 0.000000 0.355556
0.044444 0.000000 0.400000
0.044444 0.088889 0.000000
0.044444 0.088889 0.044444
0.044444 0.088889 0.088889
0.044444 0.088889 0.133333
0.044444 0.088889 0.177778
0.044444 0.088889 0.222222
0.044444 0.088889 0.266667
0.044444 0.088889 0.311111
0.044444 0.088889 0.355556
0.044444 0.088889 0.400000
0.044444 0.177778 0.000000
0.044444 0.177778 0.044444
0.044444 0.177778 0.088889
0.044444 0.177778 0.133333
0.044444 0.177778 0.177778
0.044444 0.177778 0.222222
0.044444 0.177778 0.266667
0.044444 0.177778 0.311111
0.044444 0.177778 0.355556
0.044444 0.177778 0.400000
0.044444 0.266667 0.000000
0.044444 0.266667 0.044444
0.044444 0.266667 0.088889
0.044444 0.266667 0.133333
0.044444 0.266667 0.177778
0.044444 0.266667 0.222222
0.044444 0.266667 0.266667
0.044444 0.266667 0.311111
0.044444 0.266667 0.355556
0.044444 0.266667 0.400000
0.044444 0.355556 0.000000
0.044444 0.355556 0.044444
0.044444 0.355556 0.088889
0.044444 0.355556 0.133333
0.044444 0.355556 0.177778
0.044444 0.355556 0.222222
0.044444 0.355556 0.266667
0.044444 0.355556 0.311111
0.044444 0.355556 0.355556
0.044444 0.355556 0.400000
0.044444 0.444444 0.000000
0.044444 0.444444 0.044444
0.044444 0.444444 0.088889
0.044444 0.444444 0.133333
0.044444 0.444444 0.177778
0.044444 0.444444 0.222222
0.044444 0.444444 0.266667
0.044444 0.444444 0.311111
0.044444 0.444444 0.355556
0.044444 0.444444 0.400000
0.044444 0.533333 0.000000
0.044444 0.533333 0.044444
0.044444 0.533333 0.088889
0.044444 0.533333 0.133333
0.044444 0.533333 0.177778
0.044444 0.533333 0.222222
0.044444 0.533333 0.266667
0.044444 0.533333 0.311111
0.044444 0.533333 0.355556
0.044444 0.533333 0.400000
0.044444 0.622222 0.000000
0.044444 0.622222 0.044444
0.044444 0.622222 0.088889
0.044444 0.622222 0.133333
0.044444 0.622222 0.177778
0.044444 0.622222 0.222222
0.044444 0.622222 0.266667
0.044444 0.622222 0.311111
0.044444 0.622222 0.355556
0.044444 0.622222 0.400000
0.044444 0.711111 0.000000
0.044444 0.711111 0.044444
0.044444 0.711111 0.088889
0.044444 0.711111 0.133333
0.044444 0.711111 0.177778
0.044444 0.711111 0.222222
0.044444 0.711111 0.266667
0.044444 0.711111 0.311111
0.044444 0.711111 0.355556
0.044444 0.711111 0.400000
0.044444 0.800000 0.000000
0.044444 0.800000 0.044444
0.044444 0.800000 0.088889
0.044444 0.800000 0.133333
0.044444 0.800000 0.177778
0.044444 0.800000 0.222222
0.044444 0.800000 0.266667
0.044444 0.800000 0.311111
0.044444 0.800000 0.355556
0.044444 0.800000 0.400000
0.088889 0.000000 0.000000
0.088889 0.000000 0.044444
0.088889 0.000000 0.088889
0.088889 0.000000 0.133333
0.088889 0.000000 0.177778
0.088889 0.000000 0.222222
0.088889 0.000000 0.266667
0.088889 0.000000 0.311111
0.088889 0.000000 0.355556
0.088889 0.000000 0.400000
0.088889 0.088889 0.000000
0.088889 0.088889 0.044444
0.088889 0.088889 0.088889
0.088889 0.088889 0.133333
0.088889 0.088889 0.177778
0.088889 0.088889 0.222222
0.088889 0.088889 0.266667
0.088889 0.088889 0.311111
0.088889 0.088889 0.355556
0.088889 0.088889 0.400000
0.088889 0.177778 0.000000
0.088889 0.177778 0.044444
0.088889 0.177778 0.088889
0.088889 0.177778 0.133333
0.088889 0.177778 0.177778
0.088889 0.177778 0.222222
0.088889 0.177778 0.266667
0.088889 0.177778 0.311111
0.088889 0.177778 0.355556
0.088889 0.177778 0.400000
0.088889 0.266667 0.000000
0.088889 0.266667 0.044444
0.088889 0.266667 0.088889
0.088889 0.266667 0.133333
0.088889 0.266667 0.177778
0.088889 0.266667 0.222222
0.088889 0.266667 0.266667
0.088889 0.266667 0.311111
0.088889 0.266667 0.355556
0.088889 0.266667 0.400000
0.088889 0.355556 0.000000
0.088889 0.355556 0.044444
0.088889 0.355556 0.088889
0.088889 0.355556 0.133333
0.088889 0.355556 0.177778
0.088889 0.355556 0.222222
0.088889 0.355556 0.266667
0.088889 0.355556 0.311111
0.088889 0.355556 0.355556
0.088889 0.355556 0.400000
0.088889 0.444444 0.000000
0.088889 0.444444 0.044444
0.088889 0.444444 0.088889
0.088889 0.444444 0.133333
0.088889 0.444444 0.177778
0.088889 0.444444 0.222222
0.088889 0.444444 0.266667
0.088889 0.444444 0.311111
0.088889 0.444444 0.355556
0.088889 0.444444 0.400000
0.088889 0.533333 0.000000
0.088889 0.533333 0.044444
0.088889 0.533333 0.088889
0.088889 0.533333 0.133333
0.088889 0.533333 0.177778
0.088889 0.533333 0.222222
0.088889 0.533333 0.266667
0.088889 0.533333 0.311111
0.088889 0.533333 0.355556
0.088889 0.533333 0.400000
0.088889 0.622222 0.000000
0.088889 0.622222 0.044444
0.088889 0.622222 0.088889
0.088889 0.622222 0.133333
0.088889 0.622222 0.177778
0.088889 0.622222 0.222222
0.088889 0.622222 0.266667
0.088889 0.622222 0.311111
0.088889 0.622222 0.355556
0.088889 0.622222 0.400000
0.088889 0.711111 0.000000
0.088889 0.711111 0.044444
0.088889 0.711111 0.088889
0.088889 0.711111 0.133333
0.088889 0.711111 0.177778
0.088889 0.711111 0.222222
0.088889 0.711111 0.266667
0.088889 0.711111 0.311111
0.088889 0.711111 0.355556
0.088889 0.711111 0.400000
0.088889 0.800000 0.000000
0.088889 0.800000 0.044444
0.088889 0.800000 0.088889
0.088889 0.800000 0.133333
0.088889 0.800000 0.177778
0.088889 0.800000 0.222222
0.088889 0.800000 0.266667
0.088889 0.800000 0.311111
0.088889 0.800000 0.355556
0.088889 0.800000 0.400000
0.133333 0.000000 0.000000
0.133333 0.000000 0.044444
0.133333 0.000000 0.088889
0.133333 0.000000 0.133333
0.133333 0.000000 0.177778
0.133333 0.000000 0.222222
0.133333 0.000000 0.266667
0.133333 0.000000 0.311111
0.133333 0.000000 0.355556
0.133333 0.000000 0.400000
0.133333 0.088889 0.000000
0.133333 0.088889 0.044444
0.133333 0.088889 0.088889
0.133333 0.088889 0.133333
0.133333 0.088889 0.177778
0.133333 0.088889 0.222222
0.133333 0.088889 0.266667
0.133333 0.088889 0.311111
0.133333 0.088889 0.355556
0.133333 0.088889 0.400000
0.133333 0.177778 0.000000
0.133333 0.177778 0.044444
0.133333 0.177778 0.088889
0.133333 0.177778 0.133333
0.133333 0.177778 0.177778
0.133333 0.177778 0.222222
0.133333 0.177778 0.266667
0.133333 0.177778 0.311111
0.133333 0.177778 0.355556
0.133333 0.177778 0.400000
0.133333 0.266667 0.000000
0.133333 0.266667 0.044444
0.133333 0.266667 0.088889
0.133333 0.266667 0.133333
0.133333 0.266667 0.177778
0.133333 0.266667 0.222222
0.133333 0.266667 0.266667
0.133333 0.266667 0.311111
0.133333 0.266667 0.355556
0.133333 0.266667 0.400000
0.133333 0.355556 0.000000
0.133333 0.355556 0.044444
0.133333 0.355556 0.088889
0.133333 0.355556 0.133333
0.133333 0.355556 0.177778
0.133333 0.355556 0.222222
0.133333 0.355556 0.266667
0.133333 0.355556 0.311111
0.133333 0.355556 0.355556
0.133333 0.355556 0.400000
0.133333 0.444444 0.000000
0.133333 0.444444 0.044444
0.133333 0.444444 0.088889
0.133333 0.444444 0.133333
0.133333 0.444444 0.177778
0.133333 0.444444 0.222222
0.133333 0.444444 0.266667
0.133333 0.444444 0.311111
0.133333 0.444444 0.355556
0.133333 0.444444 0.400000
0.133333 0.533333 0.000000
0.133333 0.533333 0.044444
0.133333 0.533333 0.088889
0.133333 0.533333 0.133333
0.133333 0.533333 0.177778
0.133333 0.533333 0.222222
[...]
POINT_DATA 1000
SCALARS Temperature float 1
LOOKUP_TABLE default
105.057373
105.090302
105.123291
105.156219
105.189117
105.221771
105.254669
105.287201
105.319794
105.352448
105.591248
105.623260
105.655090
105.687073
105.719025
105.750671
105.782318
105.814240
105.845764
105.877289
106.108734
106.139801
106.170837
106.201782
106.232544
106.263336
106.294098
106.324799
106.355438
106.386078
106.610260
106.640350
106.670380
106.700317
106.730133
106.759979
106.789764
106.819489
106.849030
106.878754
107.095825
107.124939
107.153931
107.183014
107.211884
107.240784
107.269562
107.298309
107.327026
107.355652
107.565613
107.593933
107.621979
107.649994
107.678009
107.705902
107.733734
107.761597
107.789246
107.816956
108.020203
108.047363
108.074554
108.101654
108.128571
108.155701
108.182648
108.209564
108.236359
108.263092
108.459381
108.485718
108.511932
108.538147
108.564240
108.590363
108.616425
108.642365
108.668243
108.694092
108.883759
108.909088
108.934326
108.959808
108.984955
109.010193
109.035309
109.060364
109.085358
109.110291
109.293427
109.317902
109.342346
109.366760
109.391083
109.415375
109.439758
109.463867
109.488007
109.512115
105.090698
105.123657
105.156616
105.189362
105.222260
105.254974
105.287537
105.320190
105.352753
105.385193
105.623505
105.655518
105.687469
105.719299
105.751007
105.782745
105.814484
105.846100
105.877563
105.909088
106.140137
106.171112
106.202026
106.232910
106.263641
106.294434
106.325165
106.355743
106.386261
106.416840
106.640656
106.670654
106.700653
106.730469
106.760315
106.790070
106.819824
106.849396
106.878998
106.908661
107.125214
107.154236
107.183258
107.212250
107.241089
107.269867
107.298615
107.327362
107.355988
107.384552
107.594177
107.622284
107.650452
107.678345
107.706146
107.734100
107.761871
107.789581
107.817322
107.844910
108.047607
108.074768
108.101898
108.128967
108.155853
108.182892
108.209808
108.236572
108.263428
108.290070
108.486023
108.512146
108.538361
108.564484
108.590668
108.616699
108.642639
108.668549
108.694397
108.720123
108.909393
108.934753
108.960022
108.985229
109.010406
109.035522
109.060760
109.085602
109.110596
109.135498
109.318176
109.342621
109.366943
109.391327
109.415771
109.439972
109.464203
109.488342
109.512360
109.536377
105.123993
105.157013
105.189789
105.222565
105.255280
105.287842
105.320526
105.353058
105.385498
105.417938
105.655884
105.687775
105.719635
105.751404
105.783081
105.814789
105.846375
105.877899
105.909393
105.940826
106.171448
106.202332
106.233246
106.264008
106.294769
106.325470
106.356110
106.386597
106.417145
106.447540
106.670990
106.700806
106.730804
106.760712
106.790375
106.820221
106.849823
106.879364
106.908936
106.938324
107.154572
107.183624
107.212555
107.241302
107.270203
107.298981
107.327698
107.356171
107.384796
107.413300
107.622620
107.650787
107.678558
107.706512
107.734375
107.762146
107.789886
107.817657
107.845245
107.872803
108.075165
108.102173
108.129211
108.156342
108.183197
108.210083
108.236877
108.263702
108.290436
108.317047
108.512451
108.538605
108.564819
108.591003
108.616913
108.642975
108.668854
108.694641
108.720428
108.746216
108.934967
108.960236
108.985504
109.010681
109.035797
109.060944
109.085907
109.110870
109.135773
109.160614
109.342926
109.367279
109.391632
109.415924
109.440216
109.464386
109.488586
109.512634
109.536652
109.560638
105.157196
105.190125
105.222839
105.255524
105.288300
105.320892
105.353424
105.385956
105.418213
105.450623
105.688110
105.719940
105.751709
105.783447
105.815125
105.846741
105.878357
105.909698
105.941193
105.972443
106.202606
106.233582
106.264374
106.295135
106.325836
106.356323
106.387054
106.417389
106.447937
106.478271
106.701141
106.731049
106.760895
106.790710
106.820465
106.850067
106.879700
106.909149
106.938690
106.968170
107.183838
107.212799
107.241669
107.270477
107.299194
107.327942
107.356537
107.385101
107.413666
107.442169
107.651031
107.678894
107.706787
107.734711
107.762482
107.790222
107.817841
107.845612
107.873169
107.900543
108.102386
108.129486
108.156586
108.183472
108.210327
108.237152
108.264008
108.290619
108.317322
108.343933
108.538940
108.565033
108.591156
108.617126
108.643158
108.669098
108.694885
108.720673
108.746490
108.772217
108.960541
108.985779
109.010895
109.036133
109.061188
109.086182
109.111115
109.135986
109.161041
109.185699
109.367493
109.391876
109.416168
109.440460
109.464691
109.488861
109.512909
109.536865
109.560883
109.584808
105.190460
105.223206
105.255920
105.288605
105.321198
105.353790
105.386200
105.418671
105.450989
105.483307
105.720306
105.752106
105.783783
105.815460
105.846985
105.878601
105.910065
105.941498
105.972839
106.004150
106.233917
106.264648
106.295502
106.326141
106.356689
106.387238
106.417755
106.448242
106.478607
106.508820
106.731415
106.761200
106.791016
106.820831
106.850403
106.879974
106.909515
106.938995
106.968475
106.997772
107.213104
107.242004
107.270721
107.299561
107.328186
107.356812
107.385468
107.413971
107.442352
107.470795
107.679108
107.707062
107.734863
107.762756
107.790558
107.818237
107.845825
107.873383
107.900970
107.928345
108.129761
108.156830
108.183807
108.210602
108.237488
108.264191
108.290955
108.317566
108.344116
108.370697
108.565338
108.591431
108.617462
108.643433
108.669373
108.695160
108.721008
108.746765
108.772461
108.798035
108.986176
109.011169
109.036407
109.061462
109.086456
109.111450
109.136322
109.161224
109.185913
109.210663
109.392120
109.416412
109.440735
109.464874
109.489075
109.513123
109.537140
109.561188
109.585052
109.609009
105.223602
105.256256
105.288971
105.321533
105.354065
105.386536
105.418915
105.451324
105.483582
105.515778
105.752350
105.784088
105.815796
105.847382
105.878906
105.910370
105.941803
105.973114
106.004456
106.035736
106.264984
106.295807
106.326447
106.356995
106.387604
106.418121
106.448578
106.478943
106.509125
106.539490
106.761597
106.791351
106.821075
106.850739
106.880310
106.909882
106.939301
106.968781
106.998016
107.027374
107.242279
107.271088
107.299805
107.328491
107.357178
107.385742
107.414276
107.442657
107.471039
107.499481
107.707397
107.735260
107.763062
107.790802
107.818420
107.846100
107.873657
107.901215
107.928589
107.956024
108.157135
108.184052
108.210938
108.237732
108.264496
108.291168
108.317810
108.344452
108.371063
108.397522
108.591705
108.617706
108.643707
108.669617
108.695435
108.721252
108.747101
108.772736
108.798279
108.824005
109.011414
109.036652
109.061798
109.086578
109.111633
109.136597
109.161530
109.186188
109.211029
109.235687
109.416687
109.441040
109.465179
109.489288
109.513336
109.537445
109.561493
109.585266
109.609222
109.633087
105.256622
105.289307
105.321869
105.354431
105.386902
105.419250
105.451630
105.483917
105.516113
105.548309
105.784424
105.816132
105.847809
105.879303
105.910736
105.942139
105.973450
106.004852
106.036041
106.067261
106.296082
106.326691
106.357391
106.387878
106.418457
106.448883
106.479279
106.509491
106.539825
106.570038
106.791718
106.821381
106.850891
106.880585
106.910187
106.939636
106.969086
106.998383
107.027679
107.056976
107.271393
107.300140
107.328735
107.357483
107.386017
107.414520
107.443024
107.471405
107.499786
107.528046
107.735565
107.763428
107.791107
107.818726
107.846405
107.873993
107.901550
107.928925
107.956390
107.983765
108.184296
108.211212
108.238007
108.264801
108.291412
108.318176
108.344849
108.371307
108.397766
108.424194
108.618011
108.643982
108.669891
108.695679
108.721649
108.747345
108.772919
108.798553
108.824188
108.849792
109.036896
109.062012
109.086884
109.111908
109.136871
109.161774
109.186554
109.211212
109.236023
109.260498
109.441162
109.465454
109.489532
109.513702
109.537659
109.561737
109.585663
109.609467
109.633301
109.657104
105.289642
105.322235
105.354736
105.387299
105.419586
105.452026
105.484314
105.516479
105.548584
105.580780
105.816437
105.847992
105.879639
105.911133
105.942535
105.973877
106.005157
106.036438
106.067566
106.098602
106.327057
106.357635
106.388153
106.418762
106.449219
106.479614
106.509827
106.540192
106.570312
106.600494
106.821594
106.851288
106.880951
106.910400
106.939880
106.969391
106.998688
107.027924
107.057190
107.086395
107.300507
107.329132
107.357666
107.386292
107.414825
107.443268
107.471741
107.500031
107.528412
107.556488
107.763733
107.791382
107.819000
107.846710
107.874268
107.901794
107.929199
107.956696
107.984039
108.011261
108.211578
108.238251
108.265045
108.291840
108.318451
108.345032
108.371613
108.398041
108.424469
108.450867
108.644348
108.670197
108.695953
108.721893
108.747589
108.773224
108.798828
108.824432
108.849945
108.875519
109.062164
109.087189
109.112274
109.137146
109.161896
109.186798
109.211578
109.236176
109.260803
109.285431
109.465698
109.489838
109.513916
109.537933
109.561981
109.585907
109.609741
109.633545
109.657257
109.681122
105.322571
105.355133
105.387573
105.419983
105.452362
105.484619
105.516876
105.548981
105.581085
105.613129
105.848358
105.879974
105.911377
105.942780
105.974152
106.005463
106.036713
106.067871
106.099060
106.130066
106.357941
106.388519
106.419098
106.449524
106.479828
106.510162
106.540497
106.570740
106.600922
106.630890
106.851593
106.881287
106.910797
106.940247
106.969696
106.999054
107.028229
107.057465
107.086761
107.115875
107.329437
107.358032
107.386566
107.415192
107.443756
107.471954
107.500397
107.528564
107.556824
107.585022
107.791748
107.819366
107.847015
107.874573
107.902069
107.929565
107.956940
107.984314
108.011627
108.038818
108.238586
108.265350
108.292023
108.318787
108.345337
108.371857
108.398346
108.424744
108.451111
108.477448
108.670441
108.696259
108.722107
108.747894
108.773529
108.799133
108.824677
108.850311
108.875671
108.901093
109.087463
109.112427
109.137360
109.162292
109.187042
109.211761
109.236481
109.260986
109.285675
109.310242
109.490051
109.514221
109.538147
109.562317
109.586121
109.610077
109.633789
109.657532
109.681335
109.704926
105.355499
105.387939
105.420319
105.452698
105.484924
105.517242
105.549316
105.581451
105.613495
105.645477
105.880188
105.911774
105.943146
105.974548
106.005737
106.037079
106.068207
106.099396
106.130432
106.161438
106.388947
106.419373
106.449860
106.480133
106.510468
106.540833
106.570923
106.601166
106.631226
106.661194
106.881592
106.911072
106.940521
106.970001
106.999237
107.028595
107.057861
107.087067
107.116058
107.145172
107.358337
107.386871
107.415436
107.443939
107.472321
107.500732
107.529022
107.557190
107.585388
107.613525
107.819702
107.847321
107.874847
107.902344
107.929840
107.957184
107.984528
108.011902
108.039124
108.066315
108.265656
108.292267
108.319061
108.345581
108.372131
108.398651
108.425049
108.451385
108.477631
108.504028
108.696564
108.722412
108.748077
108.773773
108.799408
108.825073
108.850616
108.875946
108.901398
108.926819
109.112701
109.137604
109.162445
109.187286
109.212006
109.236725
109.261322
109.285950
109.310455
109.334930
109.514404
109.538452
109.562500
109.586334
109.610260
109.634064
109.657745
109.681458
109.705170
109.728882

SCALARS Alpha float 1
LOOKUP_TABLE default
-2.662777
-2.662363
-2.661952
-2.661539
-2.661128
-2.660719
-2.660308
-2.659900
-2.659492
-2.659085
-2.656098
-2.655697
-2.655298
-2.654899
-2.654500
-2.654103
-2.653706
-2.653310
-2.652915
-2.652521
-2.649628
-2.649239
-2.648853
-2.648467
-2.648081
-2.647695
-2.647312
-2.646929
-2.646546
-2.646165
-2.643363
-2.642987
-2.642614
-2.642240
-2.641864
-2.641494
-2.641124
-2.640752
-2.640381
-2.640012
-2.637303
-2.636940
-2.636578
-2.636217
-2.635855
-2.635495
-2.635135
-2.634777
-2.634419
-2.634062
-2.631442
-2.631092
-2.630742
-2.630391
-2.630043
-2.629695
-2.629347
-2.629001
-2.628655
-2.628310
-2.625780
-2.625439
-2.625102
-2.624763
-2.624426
-2.624090
-2.623756
-2.623419
-2.623086
-2.622753
-2.620309
-2.619981
-2.619656
-2.619329
-2.619003
-2.618679
-2.618355
-2.618032
-2.617709
-2.617386
-2.615029
-2.614711
-2.614398
-2.614083
-2.613768
-2.613454
-2.613143
-2.612831
-2.612519
-2.612210
-2.609933
-2.609629
-2.609324
-2.609021
-2.608719
-2.608417
-2.608114
-2.607814
-2.607514
-2.607214
-2.662359
-2.661947
-2.661536
-2.661124
-2.660713
-2.660305
-2.659897
-2.659489
-2.659080
-2.658675
-2.655693
-2.655294
-2.654896
-2.654497
-2.654100
-2.653703
-2.653306
-2.652911
-2.652517
-2.652123
-2.649235
-2.648848
-2.648462
-2.648077
-2.647693
-2.647307
-2.646924
-2.646542
-2.646160
-2.645780
-2.642984
-2.642610
-2.642236
-2.641862
-2.641491
-2.641119
-2.640748
-2.640378
-2.640008
-2.639639
-2.636935
-2.636574
-2.636213
-2.635852
-2.635492
-2.635130
-2.634772
-2.634416
-2.634059
-2.633702
-2.631089
-2.630737
-2.630387
-2.630039
-2.629691
-2.629344
-2.628997
-2.628651
-2.628307
-2.627962
-2.625435
-2.625098
-2.624761
-2.624423
-2.624086
-2.623751
-2.623416
-2.623084
-2.622750
-2.622416
-2.619977
-2.619651
-2.619324
-2.619000
-2.618676
-2.618351
-2.618028
-2.617705
-2.617385
-2.617064
-2.614709
-2.614394
-2.614080
-2.613765
-2.613452
-2.613139
-2.612827
-2.612516
-2.612206
-2.611896
-2.609626
-2.609321
-2.609017
-2.608716
-2.608413
-2.608111
-2.607811
-2.607510
-2.607211
-2.606913
-2.661942
-2.661531
-2.661119
-2.660710
-2.660300
-2.659893
-2.659485
-2.659077
-2.658670
-2.658264
-2.655290
-2.654890
-2.654493
-2.654094
-2.653698
-2.653302
-2.652907
-2.652513
-2.652120
-2.651726
-2.648845
-2.648458
-2.648072
-2.647688
-2.647304
-2.646920
-2.646538
-2.646157
-2.645776
-2.645396
-2.642607
-2.642231
-2.641858
-2.641486
-2.641116
-2.640745
-2.640375
-2.640004
-2.639637
-2.639268
-2.636571
-2.636208
-2.635848
-2.635487
-2.635127
-2.634769
-2.634412
-2.634056
-2.633698
-2.633343
-2.630734
-2.630383
-2.630035
-2.629687
-2.629340
-2.628994
-2.628649
-2.628303
-2.627959
-2.627614
-2.625093
-2.624757
-2.624420
-2.624083
-2.623748
-2.623414
-2.623080
-2.622745
-2.622415
-2.622082
-2.619648
-2.619322
-2.618996
-2.618672
-2.618348
-2.618026
-2.617702
-2.617381
-2.617059
-2.616738
-2.614390
-2.614077
-2.613761
-2.613449
-2.613135
-2.612825
-2.612512
-2.612204
-2.611894
-2.611582
-2.609317
-2.609015
-2.608712
-2.608410
-2.608108
-2.607808
-2.607506
-2.607207
-2.606909
-2.606611
-2.661527
-2.661116
-2.660705
-2.660297
-2.659887
-2.659480
-2.659072
-2.658666
-2.658260
-2.657855
-2.654886
-2.654490
-2.654091
-2.653695
-2.653297
-2.652902
-2.652508
-2.652115
-2.651723
-2.651330
-2.648455
-2.648068
-2.647685
-2.647300
-2.646915
-2.646534
-2.646153
-2.645772
-2.645391
-2.645010
-2.642228
-2.641855
-2.641482
-2.641111
-2.640740
-2.640370
-2.640000
-2.639632
-2.639264
-2.638897
-2.636205
-2.635843
-2.635483
-2.635124
-2.634765
-2.634408
-2.634050
-2.633695
-2.633338
-2.632984
-2.630381
-2.630031
-2.629683
-2.629336
-2.628990
-2.628644
-2.628299
-2.627955
-2.627612
-2.627269
-2.624753
-2.624417
-2.624080
-2.623744
-2.623410
-2.623076
-2.622743
-2.622410
-2.622078
-2.621747
-2.619318
-2.618992
-2.618668
-2.618345
-2.618020
-2.617700
-2.617378
-2.617056
-2.616736
-2.616416
-2.614073
-2.613758
-2.613444
-2.613133
-2.612821
-2.612509
-2.612200
-2.611890
-2.611580
-2.611272
-2.609012
-2.608707
-2.608407
-2.608106
-2.607805
-2.607504
-2.607205
-2.606905
-2.606608
-2.606311
-2.661111
-2.660701
-2.660293
-2.659882
-2.659476
-2.659068
-2.658662
-2.658257
-2.657850
-2.657448
-2.654483
-2.654086
-2.653689
-2.653295
-2.652899
-2.652504
-2.652111
-2.651718
-2.651326
-2.650935
-2.648063
-2.647678
-2.647296
-2.646912
-2.646532
-2.646148
-2.645767
-2.645387
-2.645007
-2.644629
-2.641851
-2.641479
-2.641107
-2.640735
-2.640365
-2.639997
-2.639628
-2.639261
-2.638893
-2.638527
-2.635840
-2.635480
-2.635120
-2.634763
-2.634404
-2.634048
-2.633690
-2.633335
-2.632980
-2.632626
-2.630029
-2.629680
-2.629333
-2.628987
-2.628640
-2.628295
-2.627951
-2.627607
-2.627265
-2.626922
-2.624413
-2.624077
-2.623741
-2.623406
-2.623072
-2.622739
-2.622407
-2.622075
-2.621742
-2.621412
-2.618990
-2.618666
-2.618341
-2.618019
-2.617695
-2.617374
-2.617054
-2.616732
-2.616413
-2.616094
-2.613754
-2.613442
-2.613129
-2.612817
-2.612507
-2.612197
-2.611886
-2.611578
-2.611269
-2.610960
-2.608706
-2.608404
-2.608102
-2.607801
-2.607501
-2.607202
-2.606903
-2.606605
-2.606306
-2.606011
-2.660697
-2.660288
-2.659879
-2.659471
-2.659064
-2.658657
-2.658252
-2.657847
-2.657444
-2.657041
-2.654083
-2.653686
-2.653290
-2.652895
-2.652502
-2.652107
-2.651714
-2.651322
-2.650931
-2.650542
-2.647676
-2.647291
-2.646908
-2.646525
-2.646144
-2.645763
-2.645383
-2.645003
-2.644625
-2.644248
-2.641475
-2.641104
-2.640731
-2.640362
-2.639993
-2.639626
-2.639256
-2.638889
-2.638523
-2.638158
-2.635476
-2.635117
-2.634758
-2.634400
-2.634043
-2.633686
-2.633332
-2.632976
-2.632622
-2.632268
-2.629677
-2.629329
-2.628982
-2.628637
-2.628292
-2.627947
-2.627605
-2.627262
-2.626918
-2.626576
-2.624074
-2.623738
-2.623403
-2.623069
-2.622735
-2.622402
-2.622071
-2.621739
-2.621409
-2.621079
-2.618662
-2.618338
-2.618015
-2.617692
-2.617370
-2.617050
-2.616729
-2.616409
-2.616090
-2.615771
-2.613439
-2.613126
-2.612814
-2.612502
-2.612192
-2.611883
-2.611574
-2.611265
-2.610958
-2.610650
-2.608399
-2.608099
-2.607798
-2.607497
-2.607198
-2.606901
-2.606603
-2.606304
-2.606008
-2.605711
-2.660283
-2.659874
-2.659467
-2.659059
-2.658653
-2.658249
-2.657845
-2.657440
-2.657037
-2.656634
-2.653681
-2.653286
-2.652890
-2.652497
-2.652103
-2.651709
-2.651317
-2.650927
-2.650537
-2.650146
-2.647288
-2.646903
-2.646522
-2.646140
-2.645760
-2.645379
-2.644999
-2.644621
-2.644243
-2.643866
-2.641099
-2.640730
-2.640358
-2.639988
-2.639621
-2.639253
-2.638885
-2.638519
-2.638154
-2.637788
-2.635114
-2.634754
-2.634396
-2.634040
-2.633683
-2.633327
-2.632973
-2.632619
-2.632264
-2.631911
-2.629326
-2.628979
-2.628632
-2.628288
-2.627944
-2.627600
-2.627258
-2.626915
-2.626574
-2.626233
-2.623734
-2.623400
-2.623065
-2.622730
-2.622399
-2.622066
-2.621736
-2.621406
-2.621076
-2.620748
-2.618334
-2.618010
-2.617688
-2.617367
-2.617046
-2.616726
-2.616406
-2.616088
-2.615768
-2.615451
-2.613122
-2.612811
-2.612499
-2.612190
-2.611879
-2.611570
-2.611262
-2.610955
-2.610647
-2.610341
-2.608095
-2.607796
-2.607494
-2.607195
-2.606897
-2.606598
-2.606301
-2.606004
-2.605708
-2.605411
-2.659870
-2.659462
-2.659056
-2.658649
-2.658244
-2.657839
-2.657435
-2.657032
-2.656630
-2.656228
-2.653282
-2.652886
-2.652493
-2.652098
-2.651706
-2.651313
-2.650923
-2.650532
-2.650142
-2.649754
-2.646900
-2.646517
-2.646136
-2.645756
-2.645375
-2.644995
-2.644617
-2.644240
-2.643862
-2.643485
-2.640724
-2.640355
-2.639984
-2.639616
-2.639248
-2.638882
-2.638515
-2.638150
-2.637784
-2.637421
-2.634752
-2.634392
-2.634035
-2.633679
-2.633324
-2.632969
-2.632614
-2.632262
-2.631909
-2.631557
-2.628976
-2.628629
-2.628285
-2.627940
-2.627596
-2.627253
-2.626911
-2.626570
-2.626228
-2.625888
-2.623394
-2.623062
-2.622729
-2.622396
-2.622063
-2.621733
-2.621402
-2.621073
-2.620745
-2.620415
-2.618007
-2.617685
-2.617363
-2.617042
-2.616722
-2.616403
-2.616083
-2.615765
-2.615447
-2.615131
-2.612806
-2.612497
-2.612186
-2.611876
-2.611567
-2.611258
-2.610951
-2.610644
-2.610338
-2.610033
-2.607792
-2.607492
-2.607192
-2.606894
-2.606596
-2.606298
-2.606000
-2.605706
-2.605410
-2.605115
-2.659458
-2.659050
-2.658645
-2.658239
-2.657834
-2.657432
-2.657028
-2.656626
-2.656224
-2.655824
-2.652882
-2.652488
-2.652094
-2.651701
-2.651310
-2.650918
-2.650527
-2.650138
-2.649750
-2.649363
-2.646514
-2.646133
-2.645751
-2.645371
-2.644991
-2.644613
-2.644235
-2.643858
-2.643482
-2.643106
-2.640350
-2.639980
-2.639612
-2.639245
-2.638877
-2.638511
-2.638146
-2.637780
-2.637417
-2.637053
-2.634390
-2.634032
-2.633675
-2.633320
-2.632965
-2.632611
-2.632257
-2.631905
-2.631551
-2.631202
-2.628627
-2.628281
-2.627937
-2.627593
-2.627251
-2.626907
-2.626567
-2.626225
-2.625886
-2.625545
-2.623057
-2.622724
-2.622391
-2.622062
-2.621729
-2.621397
-2.621068
-2.620741
-2.620413
-2.620085
-2.617682
-2.617359
-2.617039
-2.616719
-2.616399
-2.616080
-2.615761
-2.615444
-2.615129
-2.614812
-2.612492
-2.612182
-2.611874
-2.611564
-2.611255
-2.610948
-2.610641
-2.610337
-2.610030