# vtk DataFile Version 3.0
PINN prediction t=5958.62060546875
ASCII
DATASET UNSTRUCTURED_GRID
POINTS 1000 float
0.000000 0.000000 0.000000
0.000000 0.000000 0.044444
0.000000 0.000000 0.088889
0.000000 0.000000 0.133333
0.000000 0.000000 0.177778
0.000000 0.000000 0.222222
0.000000 0.000000 0.266667
0.000000 0.000000 0.311111
0.000000 0.000000 0.355556
0.000000 0.000000 0.400000
0.000000 0.088889 0.000000
0.000000 0.088889 0.044444
0.000000 0.088889 0.088889
0.000000 0.088889 0.133333
0.000000 0.088889 0.177778
0.000000 0.088889 0.222222
0.000000 0.088889 0.266667
0.000000 0.088889 0.311111
0.000000 0.088889 0.355556
0.000000 0.088889 0.400000
0.000000 0.177778 0.000000
0.000000 0.177778 0.044444
0.000000 0.177778 0.088889
0.000000 0.177778 0.133333
0.000000 0.177778 0.177778
0.000000 0.177778 0.222222
0.000000 0.177778 0.266667
0.000000 0.177778 0.311111
0.000000 0.177778 0.355556
0.000000 0.177778 0.400000
0.000000 0.266667 0.000000
0.000000 0.266667 0.044444
0.000000 0.266667 0.088889
0.000000 0.266667 0.133333
0.000000 0.266667 0.177778
0.000000 0.266667 0.222222
0.000000 0.266667 0.266667
0.000000 0.266667 0.311111
0.000000 0.266667 0.355556
0.000000 0.266667 0.400000
0.000000 0.355556 0.000000
0.000000 0.355556 0.044444
0.000000 0.355556 0.088889
0.000000 0.355556 0.133333
0.000000 0.355556 0.177778
0.000000 0.355556 0.222222
0.000000 0.355556 0.266667
0.000000 0.355556 0.311111
0.000000 0.355556 0.355556
0.000000 0.355556 0.400000
0.000000 0.444444 0.000000
0.000000 0.444444 0.044444
0.000000 0.444444 0.088889
0.000000 0.444444 0.133333
0.000000 0.444444 0.177778
0.000000 0.444444 0.222222
0.000000 0.444444 0.266667
0.000000 0.444444 0.311111
0.000000 0.444444 0.355556
0.000000 0.444444 0.400000
0.000000 0.533333 0.000000
0.000000 0.533333 0.044444
0.000000 0.533333 0.088889
0.000000 0.533333 0.133333
0.000000 0.533333 0.177778
0.000000 0.533333 0.222222
0.000000 0.533333 0.266667
0.000000 0.533333 0.311111
0.000000 0.533333 0.355556
0.000000 0.533333 0.400000
0.000000 0.622222 0.000000
0.000000 0.622222 0.044444
0.000000 0.622222 0.088889
0.000000 0.622222 0.133333
0.000000 0.622222 0.177778
0.000000 0.622222 0.222222
0.000000 0.622222 0.266667
0.000000 0.622222 0.311111
0.000000 0.622222 0.355556
0.000000 0.622222 0.400000
0.000000 0.711111 0.000000
0.000000 0.711111 0.044444
0.000000 0.711111 0.088889
0.000000 0.711111 0.133333
0.000000 0.711111 0.177778
0.000000 0.711111 0.222222
0.000000 0.711111 0.266667
0.000000 0.711111 0.311111
0.000000 0.711111 0.355556
0.000000 0.711111 0.400000
0.000000 0.800000 0.000000
0.000000 0.800000 0.044444
0.000000 0.800000 0.088889
0.000000 0.800000 0.133333
0.000000 0.800000 0.177778
0.000000 0.800000 0.222222
0.000000 0.800000 0.266667
0.000000 0.800000 0.311111
0.000000 0.800000 0.355556
0.000000 0.800000 0.400000
0.044444 0.000000 0.000000
0.044444 0.000000 0.044444
0.044444 0.000000 0.088889
0.044444 0.000000 0.133333
0.044444 0.000000 0.177778
0.044444 0.000000 0.222222
0.044444 0.000000 0.266667
0.044444 0.000000 0.311111
0.044444 0.000000 0.355556
0.044444 0.000000 0.400000
0.044444 0.088889 0.000000
0.044444 0.088889 0.044444
0.044444 0.088889 0.088889
0.044444 0.088889 0.133333
0.044444 0.088889 0.177778
0.044444 0.088889 0.222222
0.044444 0.088889 0.266667
0.044444 0.088889 0.311111
0.044444 0.088889 0.355556
0.044444 0.088889 0.400000
0.044444 0.177778 0.000000
0.044444 0.177778 0.044444
0.044444 0.177778 0.088889
0.044444 0.177778 0.133333
0.044444 0.177778 0.177778
0.044444 0.177778 0.222222
0.044444 0.177778 0.266667
0.044444 0.177778 0.311111
0.044444 0.177778 0.355556
0.044444 0.177778 0.400000
0.044444 0.266667 0.000000
0.044444 0.266667 0.044444
0.044444 0.266667 0.088889
0.044444 0.266667 0.133333
0.044444 0.266667 0.177778
0.044444 0.266667 0.222222
0.044444 0.266667 0.266667
0.044444 0.266667 0.311111
0.044444 0.266667 0.355556
0.044444 0.266667 0.400000
0.044444 0.355556 0.000000
0.044444 0.355556 0.044444
0.044444 0.355556 0.088889
0.044444 0.355556 0.133333
0.044444 0.355556 0.177778
0.044444 0.355556 0.222222
0.044444 0.355556 0.266667
0.044444 0.355556 0.311111
0.044444 0.355556 0.355556
0.044444 0.355556 0.400000
0.044444 0.444444 0.000000
0.044444 0.444444 0.044444
0.044444 0.444444 0.088889
0.044444 0.444444 0.133333
0.044444 0.444444 0.177778
0.044444 0.444444 0.222222
0.044444 0.444444 0.266667
0.044444 0.444444 0.311111
0.044444 0.444444 0.355556
0.044444 0.444444 0.400000
0.044444 0.533333 0.000000
0.044444 0.533333 0.044444
0.044444 0.533333 0.088889
0.044444 0.533333 0.133333
0.044444 0.533333 0.177778
0.044444 0.533333 0.222222
0.044444 0.533333 0.266667
0.044444 0.533333 0.311111
0.044444 0.533333 0.355556
0.044444 0.533333 0.400000
0.044444 0.622222 0.000000
0.044444 0.622222 0.044444
0.044444 0.622222 0.088889
0.044444 0.622222 0.133333
0.044444 0.622222 0.177778
0.044444 0.622222 0.222222
0.044444 0.622222 0.266667
0.044444 0.622222 0.311111
0.044444 0.622222 0.355556
0.044444 0.622222 0.400000
0.044444 0.711111 0.000000
0.044444 0.711111 0.044444
0.044444 0.711111 0.088889
0.044444 0.711111 0.133333
0.044444 0.711111 0.177778
0.044444 0.711111 0.222222
0.044444 0.711111 0.266667
0.044444 0.711111 0.311111
0.044444 0.711111 0.355556
0.044444 0.711111 0.400000
0.044444 0.800000 0.000000
0.044444 0.800000 0.044444
0.044444 0.800000 0.088889
0.044444 0.800000 0.133333
0.044444 0.800000 0.177778
0.044444 0.800000 0.222222
0.044444 0.800000 0.266667
0.044444 0.800000 0.311111
0.044444 0.800000 0.355556
0.044444 0.800000 0.400000
0.088889 0.000000 0.000000
0.088889 0.000000 0.044444
0.088889 0.000000 0.088889
0.088889 0.000000 0.133333
0.088889 0.000000 0.177778
0.088889 0.000000 0.222222
0.088889 0.000000 0.266667
0.088889 0.000000 0.311111
0.088889 0.000000 0.355556
0.088889 0.000000 0.400000
0.088889 0.088889 0.000000
0.088889 0.088889 0.044444
0.088889 0.088889 0.088889
0.088889 0.088889 0.133333
0.088889 0.088889 0.177778
0.088889 0.088889 0.222222
0.088889 0.088889 0.266667
0.088889 0.088889 0.311111
0.088889 0.088889 0.355556
0.088889 0.088889 0.400000
0.088889 0.177778 0.000000
0.088889 0.177778 0.044444
0.088889 0.177778 0.088889
0.088889 0.177778 0.133333
0.088889 0.177778 0.177778
0.088889 0.177778 0.222222
0.088889 0.177778 0.266667
0.088889 0.177778 0.311111
0.088889 0.177778 0.355556
0.088889 0.177778 0.400000
0.088889 0.266667 0.000000
0.088889 0.266667 0.044444
0.088889 0.266667 0.088889
0.088889 0.266667 0.133333
0.088889 0.266667 0.177778
0.088889 0.266667 0.222222
0.088889 0.266667 0.266667
0.088889 0.266667 0.311111
0.088889 0.266667 0.355556
0.088889 0.266667 0.400000
0.088889 0.355556 0.000000
0.088889 0.355556 0.044444
0.088889 0.355556 0.088889
0.088889 0.355556 0.133333
0.088889 0.355556 0.177778
0.088889 0.355556 0.222222
0.088889 0.355556 0.266667
0.088889 0.355556 0.311111
0.088889 0.355556 0.355556
0.088889 0.355556 0.400000
0.088889 0.444444 0.000000
0.088889 0.444444 0.044444
0.088889 0.444444 0.088889
0.088889 0.444444 0.133333
0.088889 0.444444 0.177778
0.088889 0.444444 0.222222
0.088889 0.444444 0.266667
0.088889 0.444444 0.311111
0.088889 0.444444 0.355556
0.088889 0.444444 0.400000
0.088889 0.533333 0.000000
0.088889 0.533333 0.044444
0.088889 0.533333 0.088889
0.088889 0.533333 0.133333
0.088889 0.533333 0.177778
0.088889 0.533333 0.222222
0.088889 0.533333 0.266667
0.088889 0.533333 0.311111
0.088889 0.533333 0.355556
0.088889 0.533333 0.400000
0.088889 0.622222 0.000000
0.088889 0.622222 0.044444
0.088889 0.622222 0.088889
0.088889 0.622222 0.133333
0.088889 0.622222 0.177778
0.088889 0.622222 0.222222
0.088889 0.622222 0.266667
0.088889 0.622222 0.311111
0.088889 0.622222 0.355556
0.088889 0.622222 0.400000
0.088889 0.711111 0.000000
0.088889 0.711111 0.044444
0.088889 0.711111 0.088889
0.088889 0.711111 0.133333
0.088889 0.711111 0.177778
0.088889 0.711111 0.222222
0.088889 0.711111 0.266667
0.088889 0.711111 0.311111
0.088889 0.711111 0.355556
0.088889 0.711111 0.400000
0.088889 0.800000 0.000000
0.088889 0.800000 0.044444
0.088889 0.800000 0.088889
0.088889 0.800000 0.133333
0.088889 0.800000 0.177778
0.088889 0.800000 0.222222
0.088889 0.800000 0.266667
0.088889 0.800000 0.311111
0.088889 0.800000 0.355556
0.088889 0.800000 0.400000
0.133333 0.000000 0.000000
0.133333 0.000000 0.044444
0.133333 0.000000 0.088889
0.133333 0.000000 0.133333
0.133333 0.000000 0.177778
0.133333 0.000000 0.222222
0.133333 0.000000 0.266667
0.133333 0.000000 0.311111
0.133333 0.000000 0.355556
0.133333 0.000000 0.400000
0.133333 0.088889 0.000000
0.133333 0.088889 0.044444
0.133333 0.088889 0.088889
0.133333 0.088889 0.133333
0.133333 0.088889 0.177778
0.133333 0.088889 0.222222
0.133333 0.088889 0.266667
0.133333 0.088889 0.311111
0.133333 0.088889 0.355556
0.133333 0.088889 0.400000
0.133333 0.177778 0.000000
0.133333 0.177778 0.044444
0.133333 0.177778 0.088889
0.133333 0.177778 0.133333
0.133333 0.177778 0.177778
0.133333 0.177778 0.222222
0.133333 0.177778 0.266667
0.133333 0.177778 0.311111
0.133333 0.177778 0.355556
0.133333 0.177778 0.400000
0.133333 0.266667 0.000000
0.133333 0.266667 0.044444
0.133333 0.266667 0.088889
0.133333 0.266667 0.133333
0.133333 0.266667 0.177778
0.133333 0.266667 0.222222
0.133333 0.266667 0.266667
0.133333 0.266667 0.311111
0.133333 0.266667 0.355556
0.133333 0.266667 0.400000
0.133333 0.355556 0.000000
0.133333 0.355556 0.044444
0.133333 0.355556 0.088889
0.133333 0.355556 0.133333
0.133333 0.355556 0.177778
0.133333 0.355556 0.222222
0.133333 0.355556 0.266667
0.133333 0.355556 0.311111
0.133333 0.355556 0.355556
0.133333 0.355556 0.400000
0.133333 0.444444 0.000000
0.133333 0.444444 0.044444
0.133333 0.444444 0.088889
0.133333 0.444444 0.133333
0.133333 0.444444 0.177778
0.133333 0.444444 0.222222
0.133333 0.444444 0.266667
0.133333 0.444444 0.311111
0.133333 0.444444 0.355556
0.133333 0.444444 0.400000
0.133333 0.533333 0.000000
0.133333 0.533333 0.044444
0.133333 0.533333 0.088889
0.133333 0.533333 0.133333
0.133333 0.533333 0.177778
0.133333 0.533333 0.222222
[...]
POINT_DATA 1000
SCALARS Temperature float 1
LOOKUP_TABLE default
98.281708
98.325439
98.369171
98.412750
98.456390
98.499939
98.543365
98.586823
98.630188
98.673492
98.991974
99.034821
99.077606
99.120300
99.162903
99.205475
99.247894
99.290405
99.332825
99.375153
99.686462
99.728333
99.770142
99.811829
99.853485
99.894989
99.936462
99.977966
100.019379
100.060791
100.364838
100.405548
100.446503
100.487152
100.527740
100.568329
100.608948
100.649414
100.689789
100.730255
101.026855
101.066681
101.106415
101.146088
101.185760
101.225433
101.264923
101.304382
101.343781
101.383087
101.672363
101.711273
101.750000
101.788696
101.827362
101.865906
101.904449
101.942963
101.981415
102.019684
102.301361
102.339233
102.376984
102.414703
102.452240
102.489899
102.527313
102.564819
102.602234
102.639496
102.913666
102.950531
102.987213
103.024017
103.060638
103.097168
103.133636
103.170013
103.206512
103.242767
103.509491
103.545258
103.580872
103.616577
103.652161
103.687805
103.723206
103.758636
103.794098
103.829376
104.088531
104.123322
104.158112
104.192657
104.227264
104.261658
104.296204
104.330627
104.364929
104.399200
98.325897
98.369659
98.413239
98.456818
98.500366
98.543976
98.587311
98.630646
98.673981
98.717224
99.035278
99.078033
99.120667
99.163361
99.205872
99.248322
99.290894
99.333221
99.375671
99.417816
99.728851
99.770569
99.812256
99.853973
99.895477
99.936920
99.978455
100.019806
100.061218
100.102448
100.406097
100.446899
100.487549
100.528412
100.568787
100.609344
100.649750
100.690308
100.730652
100.770905
101.067139
101.106842
101.146667
101.186279
101.225800
101.265411
101.304810
101.344299
101.383514
101.422882
101.711578
101.750458
101.789124
101.827820
101.866302
101.904877
101.943390
101.981750
102.019989
102.058380
102.339600
102.377289
102.415070
102.452667
102.490295
102.527710
102.565247
102.602600
102.639923
102.677246
102.950806
102.987640
103.024384
103.060944
103.097534
103.133942
103.170441
103.206787
103.243073
103.279327
103.545593
103.581329
103.616943
103.652557
103.688019
103.723572
103.759033
103.794403
103.829620
103.865021
104.123688
104.158417
104.193085
104.227600
104.262085
104.296661
104.330963
104.365326
104.399567
104.433807
98.370087
98.413666
98.457306
98.500824
98.544403
98.587738
98.631104
98.674469
98.717682
98.760803
99.078491
99.121216
99.163818
99.206360
99.248749
99.291321
99.333649
99.376068
99.418274
99.460510
99.770935
99.812683
99.854370
99.895844
99.937408
99.978912
100.020294
100.061615
100.102875
100.144226
100.447327
100.488068
100.528717
100.569244
100.609772
100.650299
100.690704
100.731049
100.771362
100.811554
101.107208
101.147003
101.186707
101.226288
101.265808
101.305206
101.344635
101.383942
101.423309
101.462555
101.750793
101.789459
101.828156
101.866699
101.905243
101.943756
101.982147
102.020477
102.058716
102.096924
102.377777
102.415405
102.453033
102.490692
102.528076
102.565552
102.603027
102.640259
102.677551
102.714752
102.988037
103.024750
103.061432
103.097870
103.134369
103.170807
103.207245
103.243469
103.279663
103.315948
103.581635
103.617188
103.652893
103.688385
103.723999
103.759369
103.794769
103.830109
103.865326
103.900391
104.158783
104.193390
104.227905
104.262482
104.296936
104.331268
104.365723
104.399933
104.434204
104.468353
98.414215
98.457764
98.501312
98.544830
98.588165
98.631592
98.674835
98.718048
98.761200
98.804413
99.121613
99.164246
99.206787
99.249329
99.291840
99.334198
99.376434
99.418793
99.460907
99.503143
99.813110
99.854767
99.896332
99.937836
99.979309
100.020660
100.062103
100.103363
100.144623
100.185822
100.488434
100.529144
100.569672
100.610138
100.650757
100.691040
100.731537
100.771790
100.812012
100.852203
101.147400
101.187103
101.226593
101.266144
101.305695
101.345093
101.384399
101.423767
101.462891
101.502167
101.789886
101.828522
101.867157
101.905670
101.944153
101.982574
102.020844
102.059113
102.097382
102.135468
102.415802
102.453491
102.491028
102.528412
102.565948
102.603394
102.640778
102.677917
102.715179
102.752258
103.025177
103.061707
103.098297
103.134735
103.171295
103.207611
103.243927
103.280029
103.316376
103.352417
103.617645
103.653259
103.688873
103.724396
103.759796
103.795074
103.830475
103.865662
103.900909
103.935913
104.193726
104.228302
104.262878
104.297394
104.331635
104.366028
104.400360
104.434601
104.468689
104.502808
98.458221
98.501801
98.545258
98.588715
98.632080
98.675385
98.718506
98.761719
98.804840
98.847870
99.164673
99.207245
99.249725
99.292206
99.334625
99.376923
99.419312
99.461365
99.503571
99.545624
99.855225
99.896667
99.938293
99.979767
100.021088
100.062439
100.103821
100.145050
100.186157
100.227325
100.529572
100.570099
100.610718
100.651154
100.691650
100.731842
100.772186
100.812347
100.852539
100.892670
101.187378
101.227051
101.266571
101.306122
101.345459
101.384857
101.424133
101.463348
101.502533
101.541656
101.828979
101.867432
101.905975
101.944489
101.983002
102.021210
102.059509
102.097748
102.135864
102.173920
102.453857
102.491486
102.528992
102.566406
102.603729
102.641083
102.678284
102.715546
102.752716
102.789764
103.062042
103.098633
103.135223
103.171631
103.208038
103.244202
103.280548
103.316742
103.352783
103.388855
103.653717
103.689240
103.724762
103.760223
103.795563
103.830780
103.866119
103.901276
103.936279
103.971344
104.228668
104.263184
104.297668
104.332153
104.366486
104.400787
104.434845
104.469147
104.503113
104.537201
98.502228
98.545746
98.589081
98.632446
98.675842
98.718994
98.762299
98.805298
98.848328
98.891357
99.207611
99.250214
99.292633
99.335114
99.377411
99.419617
99.461823
99.503967
99.545990
99.588104
99.897125
99.938782
99.980194
100.021606
100.062958
100.104279
100.145477
100.186584
100.227692
100.268768
100.570557
100.611084
100.651581
100.691925
100.732300
100.772614
100.812775
100.852936
100.893127
100.933197
101.227448
101.267059
101.306488
101.345886
101.385254
101.424591
101.463837
101.502930
101.542023
101.581024
101.867920
101.906464
101.944977
101.983307
102.021576
102.059906
102.098175
102.136444
102.174347
102.212372
102.491852
102.529266
102.566742
102.604156
102.641541
102.678772
102.715851
102.753021
102.790222
102.827087
103.099091
103.135620
103.171997
103.208313
103.244690
103.280914
103.317108
103.353241
103.389252
103.425232
103.689606
103.725128
103.760529
103.795868
103.831238
103.866364
103.901642
103.936676
103.971771
104.006683
104.263519
104.297974
104.332428
104.366852
104.401062
104.435181
104.469482
104.503540
104.537659
104.571564
98.546143
98.589508
98.632843
98.676208
98.719421
98.762634
98.805634
98.848785
98.891815
98.934723
99.250641
99.293152
99.335480
99.377838
99.420074
99.462311
99.504395
99.546539
99.588562
99.630524
99.939240
99.980652
100.021973
100.063385
100.104675
100.145935
100.187012
100.228149
100.269226
100.310120
100.611603
100.651917
100.692352
100.732758
100.773010
100.813263
100.853333
100.893524
100.933594
100.973541
101.267426
101.306976
101.346344
101.385651
101.424957
101.464111
101.503326
101.542480
101.581512
101.620422
101.906952
101.945312
101.983765
102.022064
102.060394
102.098511
102.136719
102.174744
102.212860
102.250793
102.529755
102.567108
102.604492
102.641876
102.679108
102.716278
102.753387
102.790588
102.827545
102.864471
103.135956
103.172363
103.208771
103.244995
103.281342
103.317474
103.353577
103.389618
103.425629
103.461517
103.725464
103.760986
103.796173
103.831573
103.866791
103.901947
103.937103
103.972046
104.007050
104.041992
104.298401
104.332764
104.367126
104.401459
104.435669
104.469849
104.503815
104.537903
104.571869
104.605865
98.590027
98.633423
98.676636
98.719879
98.763062
98.806213
98.849243
98.892273
98.935211
98.978119
99.293610
99.335968
99.378265
99.420532
99.462738
99.504852
99.547028
99.588989
99.631012
99.672791
99.981049
100.022522
100.063782
100.105133
100.146362
100.187469
100.228546
100.269684
100.310638
100.351501
100.652313
100.692749
100.733246
100.773590
100.813660
100.853790
100.894012
100.933990
100.973907
101.013885
101.307281
101.346771
101.386139
101.425323
101.464539
101.503693
101.542908
101.581879
101.620819
101.659760
101.945770
101.984100
102.022461
102.060822
102.099030
102.137146
102.175140
102.213226
102.251190
102.289215
102.567505
102.604919
102.642365
102.679565
102.716736
102.753845
102.790894
102.827881
102.864838
102.901764
103.172699
103.209229
103.245392
103.281647
103.317871
103.354034
103.390106
103.426086
103.461853
103.497772
103.761261
103.796661
103.831940
103.867157
103.902374
103.937500
103.972443
104.007385
104.042328
104.077240
104.333191
104.367554
104.401825
104.436005
104.470184
104.504242
104.538300
104.572235
104.606201
104.640045
98.633881
98.677155
98.720337
98.763580
98.806641
98.849731
98.892700
98.935638
98.978607
99.021332
99.336517
99.378632
99.420959
99.463104
99.505371
99.547485
99.589478
99.631470
99.673370
99.715210
100.022919
100.064301
100.105499
100.146759
100.187958
100.229004
100.270142
100.310944
100.352020
100.392853
100.693329
100.733582
100.773895
100.814117
100.854218
100.894440
100.934448
100.974335
101.014343
101.054077
101.347137
101.386505
101.425812
101.464996
101.504181
101.543274
101.582245
101.621246
101.660248
101.699005
101.984589
102.022858
102.061188
102.099274
102.137512
102.175568
102.213593
102.251556
102.289520
102.327271
102.605408
102.642670
102.679932
102.717133
102.754272
102.791351
102.828339
102.865295
102.902161
102.938934
103.209564
103.245819
103.282074
103.318268
103.354370
103.390442
103.426331
103.462311
103.498108
103.533966
103.796967
103.832306
103.867523
103.902618
103.937744
103.972839
104.007751
104.042755
104.077576
104.112366
104.367828
104.402069
104.436462
104.470490
104.504639
104.538727
104.572601
104.606567
104.640320
104.674225
98.677521
98.720856
98.763977
98.807129
98.850220
98.893158
98.936188
98.978973
99.021820
99.064545
99.379211
99.421387
99.463593
99.505768
99.547852
99.589935
99.631866
99.673828
99.715637
99.757416
100.064667
100.106018
100.147247
100.188354
100.229431
100.270386
100.311462
100.352478
100.393250
100.434052
100.734070
100.774292
100.814484
100.854645
100.894745
100.934814
100.974762
101.014771
101.054565
101.094360
101.386932
101.426300
101.465332
101.504639
101.543671
101.582672
101.621674
101.660614
101.699402
101.738190
102.023254
102.061462
102.099731
102.137970
102.175995
102.214111
102.251923
102.289917
102.327728
102.365479
102.643097
102.680359
102.717407
102.754608
102.791718
102.828766
102.865662
102.902557
102.939423
102.976166
103.246246
103.282440
103.318634
103.354706
103.390747
103.426666
103.462738
103.498566
103.534332
103.570068
103.832794
103.867889
103.903015
103.938171
103.973145
104.008148
104.043152
104.077972
104.112732
104.147522
104.402435
104.436768
104.470856
104.504974
104.539001
104.572937
104.606903
104.640808
104.674530
104.708221

SCALARS Alpha float 1
LOOKUP_TABLE default
-2.748005
-2.747452
-2.746901
-2.746348
-2.745799
-2.745247
-2.744700
-2.744150
-2.743603
-2.743057
-2.739033
-2.738493
-2.737953
-2.737413
-2.736876
-2.736339
-2.735802
-2.735265
-2.734731
-2.734196
-2.730269
-2.729741
-2.729214
-2.728688
-2.728163
-2.727639
-2.727116
-2.726592
-2.726070
-2.725549
-2.721716
-2.721201
-2.720687
-2.720174
-2.719662
-2.719151
-2.718640
-2.718129
-2.717620
-2.717113
-2.713376
-2.712874
-2.712373
-2.711874
-2.711375
-2.710876
-2.710379
-2.709881
-2.709386
-2.708891
-2.705251
-2.704763
-2.704276
-2.703790
-2.703303
-2.702819
-2.702333
-2.701849
-2.701367
-2.700885
-2.697343
-2.696868
-2.696393
-2.695920
-2.695446
-2.694975
-2.694505
-2.694034
-2.693564
-2.693095
-2.689651
-2.689189
-2.688727
-2.688267
-2.687807
-2.687347
-2.686890
-2.686433
-2.685977
-2.685521
-2.682173
-2.681725
-2.681277
-2.680830
-2.680383
-2.679936
-2.679493
-2.679048
-2.678605
-2.678162
-2.674912
-2.674476
-2.674042
-2.673608
-2.673173
-2.672740
-2.672309
-2.671877
-2.671448
-2.671019
-2.747446
-2.746894
-2.746344
-2.745792
-2.745242
-2.744693
-2.744145
-2.743598
-2.743051
-2.742503
-2.738487
-2.737947
-2.737409
-2.736870
-2.736332
-2.735795
-2.735261
-2.734725
-2.734191
-2.733658
-2.729736
-2.729208
-2.728683
-2.728157
-2.727633
-2.727108
-2.726586
-2.726063
-2.725543
-2.725023
-2.721195
-2.720681
-2.720168
-2.719656
-2.719145
-2.718635
-2.718124
-2.717616
-2.717107
-2.716601
-2.712870
-2.712370
-2.711869
-2.711370
-2.710870
-2.710373
-2.709877
-2.709381
-2.708885
-2.708391
-2.704758
-2.704271
-2.703783
-2.703298
-2.702812
-2.702329
-2.701844
-2.701361
-2.700879
-2.700398
-2.696864
-2.696389
-2.695915
-2.695442
-2.694970
-2.694500
-2.694029
-2.693559
-2.693090
-2.692622
-2.689183
-2.688723
-2.688261
-2.687803
-2.687343
-2.686886
-2.686428
-2.685970
-2.685516
-2.685060
-2.681721
-2.681273
-2.680825
-2.680377
-2.679933
-2.679488
-2.679043
-2.678599
-2.678157
-2.677716
-2.674471
-2.674037
-2.673603
-2.673170
-2.672737
-2.672305
-2.671873
-2.671443
-2.671014
-2.670584
-2.746889
-2.746339
-2.745787
-2.745236
-2.744687
-2.744139
-2.743591
-2.743044
-2.742499
-2.741952
-2.737942
-2.737402
-2.736864
-2.736328
-2.735789
-2.735254
-2.734720
-2.734185
-2.733652
-2.733119
-2.729204
-2.728677
-2.728150
-2.727627
-2.727103
-2.726581
-2.726058
-2.725538
-2.725017
-2.724496
-2.720676
-2.720164
-2.719651
-2.719138
-2.718628
-2.718119
-2.717610
-2.717102
-2.716594
-2.716087
-2.712363
-2.711862
-2.711364
-2.710865
-2.710369
-2.709871
-2.709377
-2.708881
-2.708386
-2.707892
-2.704266
-2.703779
-2.703292
-2.702806
-2.702323
-2.701839
-2.701356
-2.700873
-2.700393
-2.699914
-2.696384
-2.695910
-2.695436
-2.694964
-2.694494
-2.694024
-2.693554
-2.693085
-2.692618
-2.692150
-2.688718
-2.688257
-2.687798
-2.687338
-2.686881
-2.686424
-2.685966
-2.685511
-2.685056
-2.684602
-2.681267
-2.680819
-2.680373
-2.679928
-2.679483
-2.679038
-2.678595
-2.678153
-2.677711
-2.677270
-2.674032
-2.673599
-2.673165
-2.672732
-2.672300
-2.671868
-2.671438
-2.671009
-2.670580
-2.670151
-2.746332
-2.745781
-2.745230
-2.744682
-2.744135
-2.743584
-2.743039
-2.742492
-2.741947
-2.741403
-2.737397
-2.736859
-2.736322
-2.735784
-2.735249
-2.734714
-2.734179
-2.733646
-2.733113
-2.732582
-2.728671
-2.728145
-2.727621
-2.727099
-2.726574
-2.726053
-2.725532
-2.725012
-2.724492
-2.723972
-2.720157
-2.719646
-2.719135
-2.718624
-2.718114
-2.717604
-2.717096
-2.716588
-2.716083
-2.715575
-2.711859
-2.711358
-2.710860
-2.710363
-2.709867
-2.709370
-2.708876
-2.708380
-2.707887
-2.707394
-2.703773
-2.703288
-2.702803
-2.702317
-2.701836
-2.701352
-2.700870
-2.700388
-2.699907
-2.699429
-2.695906
-2.695431
-2.694959
-2.694490
-2.694019
-2.693548
-2.693080
-2.692612
-2.692145
-2.691678
-2.688253
-2.687792
-2.687333
-2.686876
-2.686419
-2.685962
-2.685506
-2.685051
-2.684597
-2.684143
-2.680814
-2.680369
-2.679924
-2.679479
-2.679035
-2.678591
-2.678148
-2.677706
-2.677265
-2.676824
-2.673595
-2.673160
-2.672727
-2.672294
-2.671865
-2.671434
-2.671004
-2.670576
-2.670148
-2.669721
-2.745775
-2.745225
-2.744677
-2.744128
-2.743580
-2.743033
-2.742486
-2.741941
-2.741396
-2.740852
-2.736852
-2.736316
-2.735779
-2.735243
-2.734708
-2.734173
-2.733640
-2.733107
-2.732577
-2.732045
-2.728139
-2.727614
-2.727092
-2.726569
-2.726047
-2.725526
-2.725006
-2.724486
-2.723968
-2.723448
-2.719641
-2.719128
-2.718618
-2.718108
-2.717599
-2.717091
-2.716585
-2.716076
-2.715571
-2.715066
-2.711354
-2.710855
-2.710358
-2.709860
-2.709365
-2.708870
-2.708375
-2.707882
-2.707388
-2.706898
-2.703282
-2.702798
-2.702312
-2.701829
-2.701346
-2.700865
-2.700384
-2.699903
-2.699423
-2.698944
-2.695428
-2.694956
-2.694484
-2.694013
-2.693544
-2.693075
-2.692608
-2.692140
-2.691674
-2.691208
-2.687787
-2.687329
-2.686872
-2.686413
-2.685958
-2.685502
-2.685046
-2.684591
-2.684139
-2.683686
-2.680364
-2.679918
-2.679474
-2.679029
-2.678586
-2.678144
-2.677702
-2.677260
-2.676820
-2.676381
-2.673155
-2.672722
-2.672290
-2.671861
-2.671429
-2.671000
-2.670571
-2.670144
-2.669716
-2.669291
-2.745220
-2.744670
-2.744122
-2.743573
-2.743027
-2.742480
-2.741935
-2.741390
-2.740847
-2.740304
-2.736310
-2.735774
-2.735237
-2.734702
-2.734168
-2.733634
-2.733103
-2.732571
-2.732041
-2.731511
-2.727611
-2.727087
-2.726564
-2.726042
-2.725520
-2.725001
-2.724480
-2.723962
-2.723444
-2.722926
-2.719123
-2.718614
-2.718102
-2.717594
-2.717086
-2.716578
-2.716071
-2.715565
-2.715061
-2.714557
-2.710850
-2.710351
-2.709856
-2.709360
-2.708864
-2.708371
-2.707878
-2.707384
-2.706892
-2.706401
-2.702792
-2.702307
-2.701823
-2.701342
-2.700859
-2.700379
-2.699898
-2.699418
-2.698939
-2.698461
-2.694950
-2.694479
-2.694008
-2.693538
-2.693070
-2.692603
-2.692134
-2.691668
-2.691203
-2.690739
-2.687325
-2.686866
-2.686409
-2.685952
-2.685497
-2.685042
-2.684587
-2.684135
-2.683681
-2.683230
-2.679914
-2.679470
-2.679025
-2.678581
-2.678139
-2.677697
-2.677255
-2.676815
-2.676375
-2.675938
-2.672717
-2.672286
-2.671856
-2.671426
-2.670995
-2.670568
-2.670138
-2.669712
-2.669284
-2.668859
-2.744665
-2.744117
-2.743567
-2.743022
-2.742475
-2.741929
-2.741384
-2.740841
-2.740299
-2.739757
-2.735767
-2.735231
-2.734698
-2.734163
-2.733628
-2.733096
-2.732564
-2.732035
-2.731503
-2.730974
-2.727081
-2.726559
-2.726038
-2.725515
-2.724995
-2.724475
-2.723956
-2.723438
-2.722921
-2.722404
-2.718607
-2.718097
-2.717588
-2.717081
-2.716572
-2.716066
-2.715560
-2.715055
-2.714552
-2.714049
-2.710346
-2.709850
-2.709355
-2.708860
-2.708365
-2.707872
-2.707378
-2.706887
-2.706397
-2.705906
-2.702302
-2.701817
-2.701336
-2.700853
-2.700373
-2.699893
-2.699414
-2.698934
-2.698457
-2.697979
-2.694474
-2.694003
-2.693534
-2.693065
-2.692597
-2.692130
-2.691663
-2.691197
-2.690733
-2.690269
-2.686862
-2.686405
-2.685947
-2.685491
-2.685038
-2.684583
-2.684128
-2.683677
-2.683225
-2.682775
-2.679465
-2.679020
-2.678576
-2.678134
-2.677692
-2.677251
-2.676810
-2.676371
-2.675934
-2.675497
-2.672282
-2.671851
-2.671421
-2.670991
-2.670563
-2.670134
-2.669708
-2.669280
-2.668855
-2.668431
-2.744109
-2.743563
-2.743016
-2.742470
-2.741923
-2.741379
-2.740834
-2.740293
-2.739752
-2.739208
-2.735226
-2.734691
-2.734158
-2.733623
-2.733090
-2.732559
-2.732028
-2.731497
-2.730968
-2.730440
-2.726553
-2.726030
-2.725510
-2.724989
-2.724469
-2.723951
-2.723432
-2.722914
-2.722398
-2.721882
-2.718092
-2.717582
-2.717077
-2.716567
-2.716061
-2.715556
-2.715050
-2.714546
-2.714041
-2.713541
-2.709845
-2.709349
-2.708855
-2.708360
-2.707867
-2.707374
-2.706881
-2.706391
-2.705900
-2.705410
-2.701813
-2.701331
-2.700848
-2.700368
-2.699889
-2.699408
-2.698929
-2.698451
-2.697975
-2.697497
-2.693999
-2.693529
-2.693060
-2.692593
-2.692124
-2.691659
-2.691193
-2.690728
-2.690265
-2.689801
-2.686399
-2.685943
-2.685488
-2.685033
-2.684579
-2.684124
-2.683672
-2.683221
-2.682770
-2.682320
-2.679015
-2.678571
-2.678128
-2.677688
-2.677248
-2.676807
-2.676368
-2.675930
-2.675492
-2.675055
-2.671847
-2.671416
-2.670987
-2.670557
-2.670130
-2.669703
-2.669276
-2.668851
-2.668425
-2.668002
-2.743556
-2.743009
-2.742463
-2.741917
-2.741372
-2.740830
-2.740288
-2.739744
-2.739202
-2.738662
-2.734686
-2.734152
-2.733619
-2.733085
-2.732553
-2.732022
-2.731494
-2.730963
-2.730434
-2.729906
-2.726024
-2.725504
-2.724984
-2.724464
-2.723945
-2.723427
-2.722909
-2.722392
-2.721876
-2.721363
-2.717577
-2.717070
-2.716563
-2.716055
-2.715550
-2.715044
-2.714540
-2.714036
-2.713534
-2.713032
-2.709345
-2.708848
-2.708355
-2.707862
-2.707369
-2.706877
-2.706386
-2.705896
-2.705406
-2.704916
-2.701326
-2.700844
-2.700362
-2.699882
-2.699403
-2.698925
-2.698447
-2.697969
-2.697494
-2.697018
-2.693525
-2.693054
-2.692587
-2.692121
-2.691653
-2.691188
-2.690722
-2.690259
-2.689796
-2.689335
-2.685938
-2.685482
-2.685027
-2.684574
-2.684121
-2.683667
-2.683217
-2.682765
-2.682315
-2.681866
-2.678568
-2.678124
-2.677684
-2.677241
-2.676802
-2.676363
-2.675924
-2.675488
-2.675050
-2.674612
-2.671411
-2.670983
-2.670553
-2.670125
-2.669697
-2.669272
-2.668848
-2.668421
-2.667998
-2.667575
-2.743005
-2.742458
-2.741913
-2.741368
-2.740824
-2.740281
-2.739738
-2.739197
-2.738657
-2.738116
-2.734147
-2.733612